<?xml version="1.0" encoding="UTF-8"?>

<!-- generated on 2024-08-29 16:41:59 by Eclipse SUMO sumo Version 1.20.0
<configuration xmlns:xsi="http://www.w3.org/2001/XMLSchema-instance" xsi:noNamespaceSchemaLocation="http://sumo.dlr.de/xsd/sumoConfiguration.xsd">

    <input>
        <net-file value="/Users/dguastel/TULIPE_SCENARIO_OSM/tulipe_highways/tulipe_highways.rev.net.xml"/>
        <route-files value="output/39b1955c-4791-471e-a81c-eea8f0fa4ff9/routes.xml"/>
        <additional-files value="output/39b1955c-4791-471e-a81c-eea8f0fa4ff9/edgedata.no_roadworks.add.xml"/>
    </input>

    <output>
        <tripinfo-output value="output/39b1955c-4791-471e-a81c-eea8f0fa4ff9/tripinfo.out.xml"/>
        <tripinfo-output.write-unfinished value="true"/>
    </output>

    <time>
        <begin value="0"/>
        <end value="3600"/>
    </time>

    <processing>
        <ignore-route-errors value="true"/>
        <random-depart-offset value="20.0"/>
    </processing>

    <random_number>
        <random value="true"/>
    </random_number>

</configuration>
-->

<meandata xmlns:xsi="http://www.w3.org/2001/XMLSchema-instance" xsi:noNamespaceSchemaLocation="http://sumo.dlr.de/xsd/meandata_file.xsd">
    <interval begin="0.00" end="3600.00" id="0_to_3600">
        <edge id="-1000933268" sampledSeconds="0.00" departed="0" arrived="0" entered="0" left="0" laneChangedFrom="0" laneChangedTo="0"/>
        <edge id="-1006106056#0" sampledSeconds="0.00" departed="0" arrived="0" entered="0" left="0" laneChangedFrom="0" laneChangedTo="0"/>
        <edge id="-1006106056#1" sampledSeconds="0.00" departed="0" arrived="0" entered="0" left="0" laneChangedFrom="0" laneChangedTo="0"/>
        <edge id="-1024105863" sampledSeconds="479.69" traveltime="9.87" overlapTraveltime="10.78" density="5.10" laneDensity="5.10" occupancy="2.38" waitingTime="272.00" timeLoss="305.06" speed="2.89" speedRelative="0.35" departed="6" arrived="5" entered="40" left="40" laneChangedFrom="0" laneChangedTo="0"/>
        <edge id="-1037986847" sampledSeconds="85.15" traveltime="2.12" overlapTraveltime="3.32" density="118.26" laneDensity="59.13" occupancy="1.16" waitingTime="47.00" timeLoss="67.24" speed="1.57" speedRelative="0.19" departed="4" arrived="4" entered="23" left="23" laneChangedFrom="2" laneChangedTo="2"/>
        <edge id="-1056901981#1" sampledSeconds="0.00" departed="0" arrived="0" entered="0" left="0" laneChangedFrom="0" laneChangedTo="0"/>
        <edge id="-1058267556#0" sampledSeconds="0.00" departed="0" arrived="0" entered="0" left="0" laneChangedFrom="0" laneChangedTo="0"/>
        <edge id="-1058267556#1" sampledSeconds="0.00" departed="0" arrived="0" entered="0" left="0" laneChangedFrom="0" laneChangedTo="0"/>
        <edge id="-1059828488" sampledSeconds="0.00" departed="0" arrived="0" entered="0" left="0" laneChangedFrom="0" laneChangedTo="0"/>
        <edge id="-1059828490" sampledSeconds="0.00" departed="0" arrived="0" entered="0" left="0" laneChangedFrom="0" laneChangedTo="0"/>
        <edge id="-1066438511#1" sampledSeconds="606.31" traveltime="9.49" overlapTraveltime="10.32" density="2.70" laneDensity="2.70" occupancy="1.25" waitingTime="34.00" timeLoss="113.37" speed="6.53" speedRelative="0.78" departed="3" arrived="1" entered="56" left="58" laneChangedFrom="0" laneChangedTo="0"/>
        <edge id="-1066478854#1" sampledSeconds="854.53" traveltime="9.78" overlapTraveltime="10.46" density="3.35" laneDensity="3.35" occupancy="1.56" waitingTime="0.00" timeLoss="95.19" speed="7.25" speedRelative="0.87" departed="4" arrived="0" entered="78" left="82" laneChangedFrom="0" laneChangedTo="0"/>
        <edge id="-1080960154#1" sampledSeconds="426.16" traveltime="38.07" overlapTraveltime="39.16" density="0.67" laneDensity="0.67" occupancy="0.33" waitingTime="0.00" timeLoss="55.78" speed="4.62" speedRelative="0.83" departed="3" arrived="2" entered="8" left="9" laneChangedFrom="0" laneChangedTo="0"/>
        <edge id="-1083809476#2" sampledSeconds="124.16" traveltime="15.14" overlapTraveltime="16.61" density="0.47" laneDensity="0.47" occupancy="0.23" waitingTime="19.00" timeLoss="57.65" speed="4.69" speedRelative="0.56" departed="8" arrived="0" entered="0" left="8" laneChangedFrom="0" laneChangedTo="0"/>
        <edge id="-1089556862" sampledSeconds="0.00" departed="0" arrived="0" entered="0" left="0" laneChangedFrom="0" laneChangedTo="0"/>
        <edge id="-1092037414" sampledSeconds="0.00" departed="0" arrived="0" entered="0" left="0" laneChangedFrom="0" laneChangedTo="0"/>
        <edge id="-1092277111#0" sampledSeconds="0.00" departed="0" arrived="0" entered="0" left="0" laneChangedFrom="0" laneChangedTo="0"/>
        <edge id="-1092277112" sampledSeconds="0.00" departed="0" arrived="0" entered="0" left="0" laneChangedFrom="0" laneChangedTo="0"/>
        <edge id="-1092277114#0" sampledSeconds="0.00" departed="0" arrived="0" entered="0" left="0" laneChangedFrom="0" laneChangedTo="0"/>
        <edge id="-1092277114#1" sampledSeconds="0.00" departed="0" arrived="0" entered="0" left="0" laneChangedFrom="0" laneChangedTo="0"/>
        <edge id="-1099375861" sampledSeconds="0.00" departed="0" arrived="0" entered="0" left="0" laneChangedFrom="0" laneChangedTo="0"/>
        <edge id="-1104041094" sampledSeconds="0.00" departed="0" arrived="0" entered="0" left="0" laneChangedFrom="0" laneChangedTo="0"/>
        <edge id="-1104477172" sampledSeconds="0.00" departed="0" arrived="0" entered="0" left="0" laneChangedFrom="0" laneChangedTo="0"/>
        <edge id="-1106583870" sampledSeconds="241.42" traveltime="13.33" overlapTraveltime="14.42" density="0.75" laneDensity="0.75" occupancy="0.35" waitingTime="0.00" timeLoss="30.76" speed="6.57" speedRelative="0.79" departed="4" arrived="4" entered="13" left="13" laneChangedFrom="0" laneChangedTo="0"/>
        <edge id="-1109746214" sampledSeconds="0.00" departed="0" arrived="0" entered="0" left="0" laneChangedFrom="0" laneChangedTo="0"/>
        <edge id="-1109746215" sampledSeconds="0.00" departed="0" arrived="0" entered="0" left="0" laneChangedFrom="0" laneChangedTo="0"/>
        <edge id="-1112471208" sampledSeconds="0.00" departed="0" arrived="0" entered="0" left="0" laneChangedFrom="0" laneChangedTo="0"/>
        <edge id="-1127569560" sampledSeconds="0.00" departed="0" arrived="0" entered="0" left="0" laneChangedFrom="0" laneChangedTo="0"/>
        <edge id="-1143919181" sampledSeconds="0.00" departed="0" arrived="0" entered="0" left="0" laneChangedFrom="0" laneChangedTo="0"/>
        <edge id="-1156329250" sampledSeconds="23.35" traveltime="0.18" overlapTraveltime="1.00" density="5.15" laneDensity="5.15" occupancy="0.53" waitingTime="0.00" timeLoss="5.57" speed="6.23" speedRelative="0.75" departed="3" arrived="8" entered="25" left="20" laneChangedFrom="0" laneChangedTo="0"/>
        <edge id="-1156337048" sampledSeconds="0.00" departed="0" arrived="0" entered="0" left="0" laneChangedFrom="0" laneChangedTo="0"/>
        <edge id="-1167764376" sampledSeconds="321.06" traveltime="9.53" overlapTraveltime="10.27" density="1.34" laneDensity="1.34" occupancy="0.63" waitingTime="0.00" timeLoss="48.82" speed="6.95" speedRelative="0.83" departed="8" arrived="3" entered="24" left="29" laneChangedFrom="0" laneChangedTo="0"/>
        <edge id="-1174838574" sampledSeconds="0.00" departed="0" arrived="0" entered="0" left="0" laneChangedFrom="0" laneChangedTo="0"/>
        <edge id="-1189500284" sampledSeconds="0.00" departed="0" arrived="0" entered="0" left="0" laneChangedFrom="0" laneChangedTo="0"/>
        <edge id="-119180342#1" sampledSeconds="123.63" traveltime="0.89" overlapTraveltime="1.36" density="3.43" laneDensity="1.72" occupancy="0.58" waitingTime="0.00" timeLoss="15.86" speed="11.00" speedRelative="0.79" departed="4" arrived="3" entered="88" left="89" laneChangedFrom="5" laneChangedTo="5"/>
        <edge id="-121794822#1" sampledSeconds="2558.82" traveltime="30.23" overlapTraveltime="32.79" density="11.32" laneDensity="11.32" occupancy="5.27" waitingTime="9.00" timeLoss="644.46" speed="2.07" speedRelative="0.74" departed="5" arrived="10" entered="74" left="69" laneChangedFrom="0" laneChangedTo="0"/>
        <edge id="-121794822#3" sampledSeconds="508.25" traveltime="5.49" overlapTraveltime="7.85" density="12.54" laneDensity="12.54" occupancy="4.42" waitingTime="7.00" timeLoss="130.47" speed="2.07" speedRelative="0.75" departed="4" arrived="4" entered="63" left="63" laneChangedFrom="0" laneChangedTo="0"/>
        <edge id="-121794822#5" sampledSeconds="398.41" traveltime="9.01" overlapTraveltime="11.24" density="5.54" laneDensity="5.54" occupancy="2.22" waitingTime="0.00" timeLoss="86.77" speed="2.22" speedRelative="0.80" departed="2" arrived="1" entered="34" left="35" laneChangedFrom="0" laneChangedTo="0"/>
        <edge id="-121794822#7" sampledSeconds="174.76" traveltime="5.06" overlapTraveltime="7.34" density="4.48" laneDensity="4.48" occupancy="1.58" waitingTime="0.00" timeLoss="41.01" speed="2.16" speedRelative="0.78" departed="6" arrived="1" entered="20" left="25" laneChangedFrom="0" laneChangedTo="0"/>
        <edge id="-121794822#9" sampledSeconds="100.36" traveltime="3.89" overlapTraveltime="6.14" density="3.24" laneDensity="3.24" occupancy="1.02" waitingTime="0.00" timeLoss="22.29" speed="2.22" speedRelative="0.80" departed="3" arrived="2" entered="15" left="16" laneChangedFrom="0" laneChangedTo="0"/>
        <edge id="-121794824" sampledSeconds="501.22" traveltime="38.63" overlapTraveltime="41.15" density="1.83" laneDensity="1.83" occupancy="0.89" waitingTime="13.00" timeLoss="137.24" speed="1.97" speedRelative="0.71" departed="13" arrived="0" entered="0" left="13" laneChangedFrom="0" laneChangedTo="0"/>
        <edge id="-121794825#0" sampledSeconds="224.90" traveltime="0.63" overlapTraveltime="3.40" density="133.33" laneDensity="133.33" occupancy="5.57" waitingTime="49.00" timeLoss="100.01" speed="1.53" speedRelative="0.55" departed="5" arrived="3" entered="64" left="66" laneChangedFrom="0" laneChangedTo="0"/>
        <edge id="-121794825#2" sampledSeconds="888.89" traveltime="22.84" overlapTraveltime="25.20" density="5.66" laneDensity="5.66" occupancy="2.58" waitingTime="62.00" timeLoss="257.23" speed="1.93" speedRelative="0.69" departed="6" arrived="1" entered="30" left="35" laneChangedFrom="0" laneChangedTo="0"/>
        <edge id="-121794825#3" sampledSeconds="30.60" overlapTraveltime="4.93" density="1.82" laneDensity="1.82" occupancy="0.50" waitingTime="2.00" timeLoss="8.92" speed="1.96" speedRelative="0.71" departed="12" arrived="0" entered="0" left="12" laneChangedFrom="0" laneChangedTo="0"/>
        <edge id="-121794827" sampledSeconds="404.69" traveltime="29.56" overlapTraveltime="31.91" density="1.74" laneDensity="1.74" occupancy="0.82" waitingTime="0.00" timeLoss="91.95" speed="2.18" speedRelative="0.78" departed="2" arrived="3" entered="11" left="10" laneChangedFrom="0" laneChangedTo="0"/>
        <edge id="-1230294701" sampledSeconds="865.16" traveltime="24.56" overlapTraveltime="26.76" density="4.76" laneDensity="4.76" occupancy="2.24" waitingTime="453.00" timeLoss="546.62" speed="2.08" speedRelative="0.37" departed="5" arrived="1" entered="28" left="31" laneChangedFrom="0" laneChangedTo="0"/>
        <edge id="-1236138839" sampledSeconds="0.00" departed="0" arrived="0" entered="0" left="0" laneChangedFrom="0" laneChangedTo="0"/>
        <edge id="-1236138842" sampledSeconds="0.00" departed="0" arrived="0" entered="0" left="0" laneChangedFrom="0" laneChangedTo="0"/>
        <edge id="-1236456856" sampledSeconds="0.00" departed="0" arrived="0" entered="0" left="0" laneChangedFrom="0" laneChangedTo="0"/>
        <edge id="-1238081828#1" sampledSeconds="0.00" departed="0" arrived="0" entered="0" left="0" laneChangedFrom="0" laneChangedTo="0"/>
        <edge id="-1239207127#1" sampledSeconds="0.00" departed="0" arrived="0" entered="0" left="0" laneChangedFrom="0" laneChangedTo="0"/>
        <edge id="-1239219872#1" sampledSeconds="0.00" departed="0" arrived="0" entered="0" left="0" laneChangedFrom="0" laneChangedTo="0"/>
        <edge id="-1245256709" sampledSeconds="0.00" departed="0" arrived="0" entered="0" left="0" laneChangedFrom="0" laneChangedTo="0"/>
        <edge id="-1245258622" sampledSeconds="0.00" departed="0" arrived="0" entered="0" left="0" laneChangedFrom="0" laneChangedTo="0"/>
        <edge id="-1263793722#2" sampledSeconds="60.76" traveltime="19.66" overlapTraveltime="20.31" density="0.11" laneDensity="0.11" occupancy="0.05" waitingTime="0.00" timeLoss="4.51" speed="7.77" speedRelative="0.93" departed="0" arrived="3" entered="3" left="0" laneChangedFrom="0" laneChangedTo="0"/>
        <edge id="-1263793723" sampledSeconds="53.36" traveltime="4.70" overlapTraveltime="6.28" density="0.48" laneDensity="0.48" occupancy="0.20" waitingTime="1.00" timeLoss="15.19" speed="5.72" speedRelative="0.69" departed="3" arrived="1" entered="6" left="8" laneChangedFrom="0" laneChangedTo="0"/>
        <edge id="-1267194155#2" sampledSeconds="349.04" traveltime="5.56" overlapTraveltime="6.44" density="2.51" laneDensity="2.51" occupancy="1.11" waitingTime="0.00" timeLoss="44.94" speed="6.78" speedRelative="0.81" departed="6" arrived="1" entered="49" left="54" laneChangedFrom="0" laneChangedTo="0"/>
        <edge id="-1305384085" sampledSeconds="0.00" departed="0" arrived="0" entered="0" left="0" laneChangedFrom="0" laneChangedTo="0"/>
        <edge id="-1305393686" sampledSeconds="0.00" departed="0" arrived="0" entered="0" left="0" laneChangedFrom="0" laneChangedTo="0"/>
        <edge id="-1307684786#1" sampledSeconds="532.33" traveltime="7.47" overlapTraveltime="8.39" density="2.95" laneDensity="2.95" occupancy="1.34" waitingTime="7.00" timeLoss="108.14" speed="6.57" speedRelative="0.79" departed="3" arrived="5" entered="61" left="59" laneChangedFrom="0" laneChangedTo="0"/>
        <edge id="-131916344" sampledSeconds="0.00" departed="0" arrived="0" entered="0" left="0" laneChangedFrom="0" laneChangedTo="0"/>
        <edge id="-131916348#3" sampledSeconds="0.00" departed="0" arrived="0" entered="0" left="0" laneChangedFrom="0" laneChangedTo="0"/>
        <edge id="-131954303" sampledSeconds="0.00" departed="0" arrived="0" entered="0" left="0" laneChangedFrom="0" laneChangedTo="0"/>
        <edge id="-132043932" sampledSeconds="0.00" departed="0" arrived="0" entered="0" left="0" laneChangedFrom="0" laneChangedTo="0"/>
        <edge id="-132043933" sampledSeconds="0.00" departed="0" arrived="0" entered="0" left="0" laneChangedFrom="0" laneChangedTo="0"/>
        <edge id="-132043934#0" sampledSeconds="0.00" departed="0" arrived="0" entered="0" left="0" laneChangedFrom="0" laneChangedTo="0"/>
        <edge id="-132043934#1" sampledSeconds="0.00" departed="0" arrived="0" entered="0" left="0" laneChangedFrom="0" laneChangedTo="0"/>
        <edge id="-132148870#1" sampledSeconds="2073.06" traveltime="14.24" overlapTraveltime="15.04" density="5.67" laneDensity="5.67" occupancy="2.70" waitingTime="10.00" timeLoss="286.97" speed="7.08" speedRelative="0.85" departed="3" arrived="2" entered="135" left="136" laneChangedFrom="0" laneChangedTo="0"/>
        <edge id="-132148870#2" sampledSeconds="582.18" traveltime="2.29" overlapTraveltime="3.04" density="9.89" laneDensity="9.89" occupancy="3.80" waitingTime="0.00" timeLoss="72.79" speed="7.03" speedRelative="0.84" departed="4" arrived="3" entered="189" left="190" laneChangedFrom="0" laneChangedTo="0"/>
        <edge id="-132376877" sampledSeconds="0.00" departed="0" arrived="0" entered="0" left="0" laneChangedFrom="0" laneChangedTo="0"/>
        <edge id="-132453746" sampledSeconds="0.00" departed="0" arrived="0" entered="0" left="0" laneChangedFrom="0" laneChangedTo="0"/>
        <edge id="-132453750#1" sampledSeconds="0.00" departed="0" arrived="0" entered="0" left="0" laneChangedFrom="0" laneChangedTo="0"/>
        <edge id="-132453751" sampledSeconds="0.00" departed="0" arrived="0" entered="0" left="0" laneChangedFrom="0" laneChangedTo="0"/>
        <edge id="-132453755" sampledSeconds="0.00" departed="0" arrived="0" entered="0" left="0" laneChangedFrom="0" laneChangedTo="0"/>
        <edge id="-132453762" sampledSeconds="0.00" departed="0" arrived="0" entered="0" left="0" laneChangedFrom="0" laneChangedTo="0"/>
        <edge id="-132928975" sampledSeconds="0.00" departed="0" arrived="0" entered="0" left="0" laneChangedFrom="0" laneChangedTo="0"/>
        <edge id="-13548482#0" sampledSeconds="0.00" departed="0" arrived="0" entered="0" left="0" laneChangedFrom="0" laneChangedTo="0"/>
        <edge id="-13548482#1" sampledSeconds="0.00" departed="0" arrived="0" entered="0" left="0" laneChangedFrom="0" laneChangedTo="0"/>
        <edge id="-137118865" sampledSeconds="0.00" departed="0" arrived="0" entered="0" left="0" laneChangedFrom="0" laneChangedTo="0"/>
        <edge id="-137419461#0" sampledSeconds="0.00" departed="0" arrived="0" entered="0" left="0" laneChangedFrom="0" laneChangedTo="0"/>
        <edge id="-137419461#1" sampledSeconds="0.00" departed="0" arrived="0" entered="0" left="0" laneChangedFrom="0" laneChangedTo="0"/>
        <edge id="-137419461#2" sampledSeconds="0.00" departed="0" arrived="0" entered="0" left="0" laneChangedFrom="0" laneChangedTo="0"/>
        <edge id="-137634033" sampledSeconds="0.00" departed="0" arrived="0" entered="0" left="0" laneChangedFrom="0" laneChangedTo="0"/>
        <edge id="-13764245#1" sampledSeconds="230.29" traveltime="28.28" overlapTraveltime="28.92" density="0.29" laneDensity="0.29" occupancy="0.14" waitingTime="0.00" timeLoss="20.17" speed="7.71" speedRelative="0.93" departed="0" arrived="8" entered="8" left="0" laneChangedFrom="0" laneChangedTo="0"/>
        <edge id="-13764247#1" sampledSeconds="1603.62" traveltime="141.37" overlapTraveltime="143.64" density="2.92" laneDensity="2.92" occupancy="1.46" waitingTime="1321.00" timeLoss="1387.36" speed="1.10" speedRelative="0.13" departed="12" arrived="0" entered="0" left="8" laneChangedFrom="0" laneChangedTo="0" teleported="1"/>
        <edge id="-13764389" sampledSeconds="46.31" traveltime="0.16" overlapTraveltime="1.00" density="17.87" laneDensity="17.87" occupancy="1.09" waitingTime="0.00" timeLoss="21.72" speed="5.69" speedRelative="0.41" departed="3" arrived="3" entered="46" left="45" laneChangedFrom="0" laneChangedTo="0"/>
        <edge id="-13853658" sampledSeconds="2222.46" traveltime="12.15" overlapTraveltime="13.11" density="14.60" laneDensity="14.60" occupancy="6.76" waitingTime="495.00" timeLoss="810.19" speed="3.61" speedRelative="0.65" departed="3" arrived="4" entered="167" left="166" laneChangedFrom="0" laneChangedTo="0"/>
        <edge id="-13853659#0" sampledSeconds="761.07" traveltime="6.51" overlapTraveltime="7.58" density="6.85" laneDensity="6.85" occupancy="2.95" waitingTime="0.00" timeLoss="113.86" speed="4.73" speedRelative="0.85" departed="2" arrived="4" entered="99" left="97" laneChangedFrom="0" laneChangedTo="0"/>
        <edge id="-13853659#1" sampledSeconds="673.61" traveltime="5.59" overlapTraveltime="6.65" density="7.07" laneDensity="7.07" occupancy="2.98" waitingTime="0.00" timeLoss="97.65" speed="4.73" speedRelative="0.85" departed="2" arrived="3" entered="100" left="99" laneChangedFrom="0" laneChangedTo="0"/>
        <edge id="-13853663" sampledSeconds="125.15" traveltime="20.20" overlapTraveltime="20.98" density="0.24" laneDensity="0.24" occupancy="0.12" waitingTime="0.00" timeLoss="13.22" speed="7.10" speedRelative="0.85" departed="1" arrived="4" entered="5" left="2" laneChangedFrom="0" laneChangedTo="0"/>
        <edge id="-138717593#0" sampledSeconds="0.00" departed="0" arrived="0" entered="0" left="0" laneChangedFrom="0" laneChangedTo="0"/>
        <edge id="-138717593#1" sampledSeconds="0.00" departed="0" arrived="0" entered="0" left="0" laneChangedFrom="0" laneChangedTo="0"/>
        <edge id="-138748684" sampledSeconds="0.00" departed="0" arrived="0" entered="0" left="0" laneChangedFrom="0" laneChangedTo="0"/>
        <edge id="-138748689" sampledSeconds="0.00" departed="0" arrived="0" entered="0" left="0" laneChangedFrom="0" laneChangedTo="0"/>
        <edge id="-14118784#0" sampledSeconds="425.27" traveltime="14.52" overlapTraveltime="15.38" density="1.13" laneDensity="1.13" occupancy="0.54" waitingTime="7.00" timeLoss="59.55" speed="7.12" speedRelative="0.85" departed="5" arrived="7" entered="23" left="21" laneChangedFrom="0" laneChangedTo="0"/>
        <edge id="-14118784#2" sampledSeconds="75.39" traveltime="4.27" overlapTraveltime="5.09" density="0.69" laneDensity="0.69" occupancy="0.30" waitingTime="0.00" timeLoss="13.33" speed="6.91" speedRelative="0.83" departed="1" arrived="3" entered="14" left="12" laneChangedFrom="0" laneChangedTo="0"/>
        <edge id="-14362916#1" sampledSeconds="621.99" traveltime="13.37" overlapTraveltime="28.13" density="2.30" laneDensity="2.30" occupancy="0.61" waitingTime="308.00" timeLoss="388.21" speed="2.85" speedRelative="0.34" departed="14" arrived="0" entered="9" left="23" laneChangedFrom="0" laneChangedTo="0"/>
        <edge id="-14475193#5" sampledSeconds="0.00" departed="0" arrived="0" entered="0" left="0" laneChangedFrom="0" laneChangedTo="0"/>
        <edge id="-145550725#1" sampledSeconds="677.16" traveltime="34.37" overlapTraveltime="36.69" density="2.51" laneDensity="2.51" occupancy="1.21" waitingTime="0.00" timeLoss="156.81" speed="2.18" speedRelative="0.78" departed="20" arrived="0" entered="0" left="19" laneChangedFrom="0" laneChangedTo="0"/>
        <edge id="-14858868" sampledSeconds="149.78" traveltime="9.64" overlapTraveltime="10.27" density="0.56" laneDensity="0.56" occupancy="0.26" waitingTime="0.00" timeLoss="12.78" speed="7.76" speedRelative="0.93" departed="0" arrived="15" entered="15" left="0" laneChangedFrom="0" laneChangedTo="0"/>
        <edge id="-150275972" sampledSeconds="206.42" traveltime="13.32" overlapTraveltime="13.98" density="0.57" laneDensity="0.57" occupancy="0.27" waitingTime="0.00" timeLoss="18.20" speed="7.58" speedRelative="0.91" departed="0" arrived="15" entered="15" left="0" laneChangedFrom="0" laneChangedTo="0"/>
        <edge id="-150275984#0" sampledSeconds="540.29" traveltime="7.99" overlapTraveltime="9.13" density="3.10" laneDensity="3.10" occupancy="1.41" waitingTime="40.00" timeLoss="147.59" speed="5.86" speedRelative="0.70" departed="8" arrived="2" entered="52" left="58" laneChangedFrom="0" laneChangedTo="0"/>
        <edge id="-150275984#1" sampledSeconds="245.39" traveltime="3.76" overlapTraveltime="4.42" density="2.44" laneDensity="2.44" occupancy="1.04" waitingTime="0.00" timeLoss="24.64" speed="7.47" speedRelative="0.90" departed="2" arrived="4" entered="54" left="52" laneChangedFrom="0" laneChangedTo="0"/>
        <edge id="-150275984#2" sampledSeconds="92.12" traveltime="1.01" overlapTraveltime="1.70" density="3.51" laneDensity="3.51" occupancy="1.07" waitingTime="0.00" timeLoss="12.29" speed="7.23" speedRelative="0.87" departed="4" arrived="2" entered="52" left="54" laneChangedFrom="0" laneChangedTo="0"/>
        <edge id="-150275984#3" sampledSeconds="201.25" traveltime="3.07" overlapTraveltime="3.71" density="2.45" laneDensity="2.45" occupancy="1.02" waitingTime="0.00" timeLoss="20.79" speed="7.48" speedRelative="0.90" departed="3" arrived="3" entered="52" left="52" laneChangedFrom="0" laneChangedTo="0"/>
        <edge id="-150275984#4" sampledSeconds="281.76" traveltime="4.35" overlapTraveltime="5.00" density="2.46" laneDensity="2.46" occupancy="1.06" waitingTime="0.00" timeLoss="32.62" speed="7.38" speedRelative="0.89" departed="3" arrived="5" entered="54" left="52" laneChangedFrom="0" laneChangedTo="0"/>
        <edge id="-150275984#6" sampledSeconds="626.04" traveltime="10.17" overlapTraveltime="11.02" density="2.37" laneDensity="2.37" occupancy="1.10" waitingTime="1.00" timeLoss="83.08" speed="7.13" speedRelative="0.86" departed="2" arrived="3" entered="55" left="54" laneChangedFrom="0" laneChangedTo="0"/>
        <edge id="-150275985#2" sampledSeconds="124.59" traveltime="7.44" overlapTraveltime="8.08" density="0.61" laneDensity="0.61" occupancy="0.29" waitingTime="0.00" timeLoss="10.54" speed="7.66" speedRelative="0.92" departed="0" arrived="16" entered="16" left="0" laneChangedFrom="0" laneChangedTo="0"/>
        <edge id="-150275986#1" sampledSeconds="2883.26" traveltime="14.10" overlapTraveltime="15.35" density="8.13" laneDensity="8.13" occupancy="3.80" waitingTime="39.00" timeLoss="508.54" speed="6.75" speedRelative="0.81" departed="2" arrived="2" entered="186" left="186" laneChangedFrom="0" laneChangedTo="0"/>
        <edge id="-150275986#2" sampledSeconds="1211.54" traveltime="5.63" overlapTraveltime="6.45" density="8.47" laneDensity="8.47" occupancy="3.75" waitingTime="5.00" timeLoss="172.57" speed="6.93" speedRelative="0.83" departed="1" arrived="3" entered="187" left="185" laneChangedFrom="0" laneChangedTo="0"/>
        <edge id="-150275986#3" sampledSeconds="437.99" traveltime="1.63" overlapTraveltime="2.31" density="10.47" laneDensity="10.47" occupancy="3.71" waitingTime="0.00" timeLoss="53.69" speed="7.20" speedRelative="0.86" departed="9" arrived="6" entered="184" left="187" laneChangedFrom="0" laneChangedTo="0"/>
        <edge id="-150275986#4" sampledSeconds="150.92" traveltime="0.03" overlapTraveltime="0.81" density="133.33" laneDensity="133.33" occupancy="4.04" waitingTime="0.00" timeLoss="33.41" speed="6.41" speedRelative="0.77" departed="7" arrived="2" entered="180" left="185" laneChangedFrom="0" laneChangedTo="0"/>
        <edge id="-150275988#2" sampledSeconds="537.12" traveltime="10.36" overlapTraveltime="11.03" density="1.91" laneDensity="1.91" occupancy="0.90" waitingTime="0.00" timeLoss="55.70" speed="7.53" speedRelative="0.90" departed="4" arrived="2" entered="45" left="47" laneChangedFrom="0" laneChangedTo="0"/>
        <edge id="-150275988#4" sampledSeconds="324.37" traveltime="6.03" overlapTraveltime="7.11" density="4.18" laneDensity="4.18" occupancy="1.85" waitingTime="76.00" timeLoss="178.47" speed="3.74" speedRelative="0.45" departed="2" arrived="1" entered="44" left="45" laneChangedFrom="0" laneChangedTo="0"/>
        <edge id="-150275988#5" sampledSeconds="489.95" traveltime="10.10" overlapTraveltime="10.76" density="1.82" laneDensity="1.82" occupancy="0.86" waitingTime="0.00" timeLoss="52.52" speed="7.40" speedRelative="0.89" departed="7" arrived="2" entered="39" left="44" laneChangedFrom="0" laneChangedTo="0"/>
        <edge id="-150275992#1" sampledSeconds="0.00" departed="0" arrived="0" entered="0" left="0" laneChangedFrom="0" laneChangedTo="0"/>
        <edge id="-150276003#1" sampledSeconds="646.40" traveltime="11.56" overlapTraveltime="12.24" density="2.08" laneDensity="2.08" occupancy="0.98" waitingTime="0.00" timeLoss="64.31" speed="7.46" speedRelative="0.90" departed="2" arrived="5" entered="51" left="48" laneChangedFrom="0" laneChangedTo="0"/>
        <edge id="-150276003#2" sampledSeconds="796.36" traveltime="27.95" overlapTraveltime="28.62" density="1.07" laneDensity="1.07" occupancy="0.52" waitingTime="0.00" timeLoss="77.94" speed="7.39" speedRelative="0.89" departed="7" arrived="3" entered="21" left="25" laneChangedFrom="0" laneChangedTo="0"/>
        <edge id="-15089551" sampledSeconds="116.93" traveltime="6.42" overlapTraveltime="7.40" density="0.73" laneDensity="0.73" occupancy="0.32" waitingTime="0.00" timeLoss="17.71" speed="6.71" speedRelative="0.81" departed="2" arrived="1" entered="14" left="15" laneChangedFrom="0" laneChangedTo="0"/>
        <edge id="-155472436#1" sampledSeconds="181.99" traveltime="16.47" overlapTraveltime="17.32" density="0.46" laneDensity="0.46" occupancy="0.23" waitingTime="0.00" timeLoss="34.79" speed="6.61" speedRelative="0.79" departed="11" arrived="0" entered="0" left="11" laneChangedFrom="0" laneChangedTo="0"/>
        <edge id="-159636087" sampledSeconds="0.00" departed="0" arrived="0" entered="0" left="0" laneChangedFrom="0" laneChangedTo="0"/>
        <edge id="-17073048#1" sampledSeconds="484.65" traveltime="2.17" overlapTraveltime="2.89" density="8.96" laneDensity="8.96" occupancy="3.36" waitingTime="0.00" timeLoss="64.04" speed="6.93" speedRelative="0.83" departed="5" arrived="1" entered="164" left="168" laneChangedFrom="0" laneChangedTo="0"/>
        <edge id="-175976586#3" sampledSeconds="0.00" departed="0" arrived="0" entered="0" left="0" laneChangedFrom="0" laneChangedTo="0"/>
        <edge id="-175976586#5" sampledSeconds="0.00" departed="0" arrived="0" entered="0" left="0" laneChangedFrom="0" laneChangedTo="0"/>
        <edge id="-175976586#7" sampledSeconds="0.00" departed="0" arrived="0" entered="0" left="0" laneChangedFrom="0" laneChangedTo="0"/>
        <edge id="-17670100#4" sampledSeconds="8026.27" traveltime="63.61" overlapTraveltime="64.60" density="25.39" laneDensity="25.39" occupancy="12.55" waitingTime="6291.00" timeLoss="6617.33" speed="1.44" speedRelative="0.17" departed="8" arrived="2" entered="122" left="117" laneChangedFrom="0" laneChangedTo="0" teleported="1"/>
        <edge id="-17670100#6" sampledSeconds="5517.60" traveltime="40.47" overlapTraveltime="41.29" density="16.92" laneDensity="16.92" occupancy="8.32" waitingTime="3640.00" timeLoss="3958.25" speed="2.31" speedRelative="0.28" departed="5" arrived="5" entered="135" left="123" laneChangedFrom="0" laneChangedTo="0" teleported="1"/>
        <edge id="-17671153" sampledSeconds="24.46" traveltime="0.89" overlapTraveltime="1.86" density="1.54" laneDensity="1.54" occupancy="0.37" waitingTime="0.00" timeLoss="9.09" speed="5.06" speedRelative="0.61" departed="2" arrived="4" entered="13" left="11" laneChangedFrom="0" laneChangedTo="0"/>