<?xml version="1.0" encoding="UTF-8"?>

<!-- generated on 2024-08-29 16:39:52 by Eclipse SUMO sumo Version 1.20.0
<configuration xmlns:xsi="http://www.w3.org/2001/XMLSchema-instance" xsi:noNamespaceSchemaLocation="http://sumo.dlr.de/xsd/sumoConfiguration.xsd">

    <input>
        <net-file value="/Users/dguastel/TULIPE_SCENARIO_OSM/tulipe_highways/tulipe_highways.rev.net.xml"/>
        <route-files value="output/924e23ea-d5c8-4647-ad64-4a53655b39c5/routes.xml"/>
        <additional-files value="output/924e23ea-d5c8-4647-ad64-4a53655b39c5/edgedata.add.xml,output/924e23ea-d5c8-4647-ad64-4a53655b39c5/rerouter.add.xml"/>
    </input>

    <output>
        <tripinfo-output value="output/924e23ea-d5c8-4647-ad64-4a53655b39c5/tripinfo.withRoadworks.out.xml"/>
        <tripinfo-output.write-unfinished value="true"/>
    </output>

    <time>
        <begin value="0"/>
        <end value="3600"/>
    </time>

    <processing>
        <ignore-route-errors value="true"/>
        <random-depart-offset value="20.0"/>
    </processing>

    <random_number>
        <random value="true"/>
    </random_number>

</configuration>
-->

<tripinfos xmlns:xsi="http://www.w3.org/2001/XMLSchema-instance" xsi:noNamespaceSchemaLocation="http://sumo.dlr.de/xsd/tripinfo_file.xsd">
    <tripinfo id="55" depart="46.00" departLane="745660413#0_0" departPos="5.10" departSpeed="0.00" departDelay="2.40" arrival="63.00" arrivalLane="1024105863_0" arrivalPos="26.14" arrivalSpeed="8.68" duration="17.00" routeLength="101.37" waitingTime="0.00" waitingCount="0" stopTime="0.00" timeLoss="3.81" rerouteNo="0" devices="tripinfo_55" vType="DEFAULT_VEHTYPE" speedFactor="1.04" vaporized=""/>
    <tripinfo id="56" depart="41.00" departLane="231475823#0_0" departPos="5.10" departSpeed="0.00" departDelay="0.68" arrival="89.00" arrivalLane="-510702675#4_0" arrivalPos="98.24" arrivalSpeed="7.26" duration="48.00" routeLength="323.47" waitingTime="0.00" waitingCount="0" stopTime="0.00" timeLoss="6.05" rerouteNo="0" devices="tripinfo_56" vType="DEFAULT_VEHTYPE" speedFactor="0.94" vaporized=""/>
    <tripinfo id="1" depart="9.00" departLane="1053478469#1_0" departPos="5.10" departSpeed="0.00" departDelay="0.28" arrival="108.00" arrivalLane="-781742860#5_0" arrivalPos="32.45" arrivalSpeed="7.11" duration="99.00" routeLength="647.67" waitingTime="0.00" waitingCount="0" stopTime="0.00" timeLoss="11.48" rerouteNo="0" devices="tripinfo_1" vType="DEFAULT_VEHTYPE" speedFactor="0.90" vaporized=""/>
    <tripinfo id="10" depart="27.00" departLane="606502609_0" departPos="0.20" departSpeed="0.00" departDelay="0.80" arrival="122.00" arrivalLane="4726679#1_0" arrivalPos="47.90" arrivalSpeed="8.22" duration="95.00" routeLength="533.76" waitingTime="0.00" waitingCount="0" stopTime="0.00" timeLoss="11.89" rerouteNo="0" devices="tripinfo_10" vType="DEFAULT_VEHTYPE" speedFactor="1.06" vaporized=""/>
    <tripinfo id="4" depart="19.00" departLane="150275991#0_0" departPos="5.10" departSpeed="0.00" departDelay="0.12" arrival="125.00" arrivalLane="-13853659#1_0" arrivalPos="26.47" arrivalSpeed="5.84" duration="106.00" routeLength="854.78" waitingTime="0.00" waitingCount="0" stopTime="0.00" timeLoss="13.58" rerouteNo="1" devices="tripinfo_4" vType="DEFAULT_VEHTYPE" speedFactor="1.15" vaporized=""/>
    <tripinfo id="108" depart="81.00" departLane="305670610_0" departPos="4.09" departSpeed="0.00" departDelay="0.24" arrival="127.00" arrivalLane="4730609_1" arrivalPos="86.37" arrivalSpeed="7.46" duration="46.00" routeLength="514.52" waitingTime="0.00" waitingCount="0" stopTime="0.00" timeLoss="5.10" rerouteNo="0" devices="tripinfo_108" vType="DEFAULT_VEHTYPE" speedFactor="1.05" vaporized=""/>
    <tripinfo id="43" depart="37.00" departLane="963479927#0_0" departPos="5.10" departSpeed="0.00" departDelay="0.04" arrival="129.00" arrivalLane="23179512#1_0" arrivalPos="91.48" arrivalSpeed="8.13" duration="92.00" routeLength="868.65" waitingTime="0.00" waitingCount="0" stopTime="0.00" timeLoss="12.91" rerouteNo="0" devices="tripinfo_43" vType="DEFAULT_VEHTYPE" speedFactor="1.11" vaporized=""/>
    <tripinfo id="21" depart="27.00" departLane="-8140188#8_0" departPos="5.10" departSpeed="0.00" departDelay="0.88" arrival="137.00" arrivalLane="11294375#0_0" arrivalPos="66.35" arrivalSpeed="8.53" duration="110.00" routeLength="886.25" waitingTime="0.00" waitingCount="0" stopTime="0.00" timeLoss="11.98" rerouteNo="0" devices="tripinfo_21" vType="DEFAULT_VEHTYPE" speedFactor="1.09" vaporized=""/>
    <tripinfo id="103" depart="79.00" departLane="14858868_0" departPos="5.10" departSpeed="0.00" departDelay="0.84" arrival="141.00" arrivalLane="628755546#0_0" arrivalPos="1.00" arrivalSpeed="5.31" duration="62.00" routeLength="260.38" waitingTime="20.00" waitingCount="1" stopTime="0.00" timeLoss="30.83" rerouteNo="1" devices="tripinfo_103" vType="DEFAULT_VEHTYPE" speedFactor="1.02" vaporized=""/>
    <tripinfo id="31" depart="37.00" departLane="307372339#0_0" departPos="5.10" departSpeed="0.00" departDelay="0.68" arrival="145.00" arrivalLane="450186404_0" arrivalPos="75.65" arrivalSpeed="5.87" duration="108.00" routeLength="516.30" waitingTime="8.00" waitingCount="1" stopTime="0.00" timeLoss="22.50" rerouteNo="0" devices="tripinfo_31" vType="DEFAULT_VEHTYPE" speedFactor="0.73" vaporized=""/>
    <tripinfo id="130" depart="101.00" departLane="7682866#0_0" departPos="5.10" departSpeed="0.00" departDelay="0.40" arrival="148.00" arrivalLane="7682866#2_0" arrivalPos="23.46" arrivalSpeed="7.57" duration="47.00" routeLength="357.27" waitingTime="0.00" waitingCount="0" stopTime="0.00" timeLoss="4.92" rerouteNo="0" devices="tripinfo_130" vType="DEFAULT_VEHTYPE" speedFactor="1.03" vaporized=""/>
    <tripinfo id="7" depart="21.00" departLane="40493501#2_0" departPos="5.10" departSpeed="0.00" departDelay="0.96" arrival="158.00" arrivalLane="290174551#1_0" arrivalPos="5.51" arrivalSpeed="7.32" duration="137.00" routeLength="878.95" waitingTime="0.00" waitingCount="0" stopTime="0.00" timeLoss="14.91" rerouteNo="0" devices="tripinfo_7" vType="DEFAULT_VEHTYPE" speedFactor="0.91" vaporized=""/>
    <tripinfo id="47" depart="52.00" departLane="-17670100#4_0" departPos="5.10" departSpeed="0.00" departDelay="0.16" arrival="160.00" arrivalLane="14118784#0_0" arrivalPos="104.44" arrivalSpeed="6.96" duration="108.00" routeLength="764.32" waitingTime="0.00" waitingCount="0" stopTime="0.00" timeLoss="12.82" rerouteNo="1" devices="tripinfo_47" vType="DEFAULT_VEHTYPE" speedFactor="0.99" vaporized=""/>
    <tripinfo id="96" depart="81.00" departLane="-8382445#1_0" departPos="5.10" departSpeed="0.00" departDelay="0.88" arrival="161.00" arrivalLane="8382302#0_0" arrivalPos="79.20" arrivalSpeed="8.01" duration="80.00" routeLength="650.94" waitingTime="0.00" waitingCount="0" stopTime="0.00" timeLoss="8.18" rerouteNo="0" devices="tripinfo_96" vType="DEFAULT_VEHTYPE" speedFactor="1.10" vaporized=""/>
    <tripinfo id="9" depart="26.00" departLane="62020111_0" departPos="5.10" departSpeed="0.00" departDelay="0.52" arrival="162.00" arrivalLane="-1167764376_0" arrivalPos="66.38" arrivalSpeed="8.12" duration="136.00" routeLength="1265.58" waitingTime="0.00" waitingCount="0" stopTime="0.00" timeLoss="14.68" rerouteNo="0" devices="tripinfo_9" vType="DEFAULT_VEHTYPE" speedFactor="1.01" vaporized=""/>
    <tripinfo id="41" depart="39.00" departLane="31448934#1_0" departPos="5.10" departSpeed="0.00" departDelay="0.48" arrival="162.00" arrivalLane="8152033#1_0" arrivalPos="26.93" arrivalSpeed="8.86" duration="123.00" routeLength="851.28" waitingTime="2.00" waitingCount="1" stopTime="0.00" timeLoss="20.93" rerouteNo="0" devices="tripinfo_41" vType="DEFAULT_VEHTYPE" speedFactor="1.07" vaporized=""/>
    <tripinfo id="115" depart="89.00" departLane="-220267247#5_0" departPos="5.10" departSpeed="0.00" departDelay="0.20" arrival="165.00" arrivalLane="-524150311#0_0" arrivalPos="13.37" arrivalSpeed="7.55" duration="76.00" routeLength="556.30" waitingTime="0.00" waitingCount="0" stopTime="0.00" timeLoss="8.55" rerouteNo="0" devices="tripinfo_115" vType="DEFAULT_VEHTYPE" speedFactor="1.01" vaporized=""/>
    <tripinfo id="15" depart="21.00" departLane="610739513#1_0" departPos="5.10" departSpeed="0.00" departDelay="0.20" arrival="166.00" arrivalLane="4730634#0_0" arrivalPos="128.10" arrivalSpeed="7.77" duration="145.00" routeLength="1075.01" waitingTime="0.00" waitingCount="0" stopTime="0.00" timeLoss="15.15" rerouteNo="0" devices="tripinfo_15" vType="DEFAULT_VEHTYPE" speedFactor="1.00" vaporized=""/>
    <tripinfo id="79" depart="73.00" departLane="-8140197#2_0" departPos="5.10" departSpeed="0.00" departDelay="0.12" arrival="166.00" arrivalLane="-781650841_0" arrivalPos="71.98" arrivalSpeed="10.98" duration="93.00" routeLength="608.16" waitingTime="0.00" waitingCount="0" stopTime="0.00" timeLoss="11.49" rerouteNo="0" devices="tripinfo_79" vType="DEFAULT_VEHTYPE" speedFactor="0.86" vaporized=""/>
    <tripinfo id="32" depart="26.00" departLane="628782531_0" departPos="5.10" departSpeed="0.00" departDelay="0.96" arrival="169.00" arrivalLane="510702678#1_0" arrivalPos="70.72" arrivalSpeed="8.13" duration="143.00" routeLength="1420.05" waitingTime="10.00" waitingCount="2" stopTime="0.00" timeLoss="30.79" rerouteNo="0" devices="tripinfo_32" vType="DEFAULT_VEHTYPE" speedFactor="1.10" vaporized=""/>
    <tripinfo id="69" depart="60.00" departLane="4760584#0_0" departPos="5.10" departSpeed="0.00" departDelay="0.32" arrival="179.00" arrivalLane="-40493501#3_0" arrivalPos="158.42" arrivalSpeed="8.42" duration="119.00" routeLength="948.51" waitingTime="0.00" waitingCount="0" stopTime="0.00" timeLoss="14.45" rerouteNo="0" devices="tripinfo_69" vType="DEFAULT_VEHTYPE" speedFactor="1.11" vaporized=""/>
    <tripinfo id="23" depart="24.00" departLane="-29023870#1_0" departPos="5.10" departSpeed="0.00" departDelay="0.44" arrival="183.00" arrivalLane="1083809476#0_0" arrivalPos="72.33" arrivalSpeed="8.61" duration="159.00" routeLength="1936.56" waitingTime="0.00" waitingCount="0" stopTime="0.00" timeLoss="12.81" rerouteNo="0" devices="tripinfo_23" vType="DEFAULT_VEHTYPE" speedFactor="1.08" vaporized=""/>
    <tripinfo id="17" depart="21.00" departLane="14118785#1_0" departPos="5.10" departSpeed="0.00" departDelay="0.76" arrival="188.00" arrivalLane="307372337#0_0" arrivalPos="29.89" arrivalSpeed="7.25" duration="167.00" routeLength="1034.14" waitingTime="10.00" waitingCount="2" stopTime="0.00" timeLoss="35.69" rerouteNo="1" devices="tripinfo_17" vType="DEFAULT_VEHTYPE" speedFactor="0.95" vaporized=""/>
    <tripinfo id="60" depart="50.00" departLane="47426244#2_0" departPos="5.10" departSpeed="0.00" departDelay="0.80" arrival="190.00" arrivalLane="290172305#0_0" arrivalPos="50.40" arrivalSpeed="7.47" duration="140.00" routeLength="983.60" waitingTime="0.00" waitingCount="0" stopTime="0.00" timeLoss="15.24" rerouteNo="0" devices="tripinfo_60" vType="DEFAULT_VEHTYPE" speedFactor="0.95" vaporized=""/>
    <tripinfo id="33" depart="42.00" departLane="-8140193#2_0" departPos="5.10" departSpeed="0.00" departDelay="0.24" arrival="192.00" arrivalLane="-14118784#2_0" arrivalPos="30.19" arrivalSpeed="8.70" duration="150.00" routeLength="1175.29" waitingTime="0.00" waitingCount="0" stopTime="0.00" timeLoss="19.97" rerouteNo="0" devices="tripinfo_33" vType="DEFAULT_VEHTYPE" speedFactor="1.10" vaporized=""/>
    <tripinfo id="0" depart="15.00" departLane="40151780#0_0" departPos="5.10" departSpeed="0.00" departDelay="0.00" arrival="201.00" arrivalLane="-13764245#1_0" arrivalPos="218.00" arrivalSpeed="8.53" duration="186.00" routeLength="1808.00" waitingTime="0.00" waitingCount="0" stopTime="0.00" timeLoss="18.91" rerouteNo="0" devices="tripinfo_0" vType="DEFAULT_VEHTYPE" speedFactor="1.09" vaporized=""/>
    <tripinfo id="146" depart="107.00" departLane="40151775_0" departPos="5.10" departSpeed="0.00" departDelay="0.88" arrival="202.00" arrivalLane="-95742119#1_0" arrivalPos="3.64" arrivalSpeed="3.40" duration="95.00" routeLength="538.11" waitingTime="3.00" waitingCount="1" stopTime="0.00" timeLoss="20.15" rerouteNo="0" devices="tripinfo_146" vType="DEFAULT_VEHTYPE" speedFactor="0.80" vaporized=""/>
    <tripinfo id="11" depart="9.00" departLane="1287393211#3_0" departPos="5.10" departSpeed="0.00" departDelay="0.08" arrival="209.00" arrivalLane="-4426076#0_0" arrivalPos="30.91" arrivalSpeed="7.04" duration="200.00" routeLength="1199.05" waitingTime="16.00" waitingCount="3" stopTime="0.00" timeLoss="51.94" rerouteNo="0" devices="tripinfo_11" vType="DEFAULT_VEHTYPE" speedFactor="0.95" vaporized=""/>
    <tripinfo id="157" depart="120.00" departLane="510702675#0_0" departPos="5.10" departSpeed="0.00" departDelay="0.96" arrival="209.00" arrivalLane="781742860#4_0" arrivalPos="32.44" arrivalSpeed="9.15" duration="89.00" routeLength="529.85" waitingTime="23.00" waitingCount="1" stopTime="0.00" timeLoss="31.93" rerouteNo="0" devices="tripinfo_157" vType="DEFAULT_VEHTYPE" speedFactor="1.13" vaporized=""/>
    <tripinfo id="12" depart="10.00" departLane="8384905#0_0" departPos="5.10" departSpeed="0.00" departDelay="0.36" arrival="211.00" arrivalLane="124862963#0_0" arrivalPos="89.92" arrivalSpeed="17.14" duration="201.00" routeLength="1965.85" waitingTime="1.00" waitingCount="1" stopTime="0.00" timeLoss="29.26" rerouteNo="0" devices="tripinfo_12" vType="DEFAULT_VEHTYPE" speedFactor="1.27" vaporized=""/>
    <tripinfo id="212" depart="154.00" departLane="220267247#2_0" departPos="3.57" departSpeed="0.00" departDelay="0.36" arrival="212.00" arrivalLane="-8382302#1_0" arrivalPos="190.32" arrivalSpeed="9.30" duration="58.00" routeLength="465.98" waitingTime="0.00" waitingCount="0" stopTime="0.00" timeLoss="6.65" rerouteNo="0" devices="tripinfo_212" vType="DEFAULT_VEHTYPE" speedFactor="1.12" vaporized=""/>
    <tripinfo id="189" depart="146.00" departLane="1174387992_0" departPos="3.66" departSpeed="0.00" departDelay="0.92" arrival="216.00" arrivalLane="628782530_0" arrivalPos="3.16" arrivalSpeed="4.25" duration="70.00" routeLength="698.83" waitingTime="0.00" waitingCount="0" stopTime="0.00" timeLoss="11.51" rerouteNo="0" devices="tripinfo_189" vType="DEFAULT_VEHTYPE" speedFactor="0.91" vaporized=""/>
    <tripinfo id="136" depart="99.00" departLane="413722453#0_0" departPos="5.10" departSpeed="0.00" departDelay="0.08" arrival="217.00" arrivalLane="8382393#0_0" arrivalPos="78.47" arrivalSpeed="8.03" duration="118.00" routeLength="1126.52" waitingTime="0.00" waitingCount="0" stopTime="0.00" timeLoss="13.34" rerouteNo="0" devices="tripinfo_136" vType="DEFAULT_VEHTYPE" speedFactor="1.00" vaporized=""/>
    <tripinfo id="90" depart="66.00" departLane="4726737_0" departPos="5.10" departSpeed="0.00" departDelay="0.20" arrival="218.00" arrivalLane="4392761#0_0" arrivalPos="24.31" arrivalSpeed="14.34" duration="152.00" routeLength="1481.12" waitingTime="0.00" waitingCount="0" stopTime="0.00" timeLoss="22.27" rerouteNo="0" devices="tripinfo_90" vType="DEFAULT_VEHTYPE" speedFactor="1.23" vaporized=""/>
    <tripinfo id="22" depart="30.00" departLane="-220267247#5_0" departPos="5.10" departSpeed="0.00" departDelay="0.16" arrival="222.00" arrivalLane="-8140197#2_0" arrivalPos="78.81" arrivalSpeed="6.37" duration="192.00" routeLength="1237.96" waitingTime="0.00" waitingCount="0" stopTime="0.00" timeLoss="20.13" rerouteNo="0" devices="tripinfo_22" vType="DEFAULT_VEHTYPE" speedFactor="0.87" vaporized=""/>
    <tripinfo id="59" depart="51.00" departLane="36801001#1_0" departPos="5.10" departSpeed="0.00" departDelay="0.52" arrival="223.00" arrivalLane="-4426075#1_0" arrivalPos="235.07" arrivalSpeed="8.44" duration="172.00" routeLength="1687.35" waitingTime="0.00" waitingCount="0" stopTime="0.00" timeLoss="16.01" rerouteNo="0" devices="tripinfo_59" vType="DEFAULT_VEHTYPE" speedFactor="1.08" vaporized=""/>
    <tripinfo id="247" depart="191.00" departLane="1263955158#1_0" departPos="5.10" departSpeed="0.00" departDelay="0.16" arrival="226.00" arrivalLane="4426076#1_0" arrivalPos="56.03" arrivalSpeed="7.81" duration="35.00" routeLength="234.61" waitingTime="0.00" waitingCount="0" stopTime="0.00" timeLoss="6.87" rerouteNo="0" devices="tripinfo_247" vType="DEFAULT_VEHTYPE" speedFactor="1.05" vaporized=""/>
    <tripinfo id="28" depart="40.00" departLane="-4760584#1_0" departPos="5.10" departSpeed="0.00" departDelay="0.84" arrival="228.00" arrivalLane="4730633#0_0" arrivalPos="63.51" arrivalSpeed="6.71" duration="188.00" routeLength="1294.36" waitingTime="0.00" waitingCount="0" stopTime="0.00" timeLoss="20.60" rerouteNo="0" devices="tripinfo_28" vType="DEFAULT_VEHTYPE" speedFactor="0.93" vaporized=""/>
    <tripinfo id="91" depart="67.00" departLane="939752205#2_0" departPos="5.10" departSpeed="0.00" departDelay="0.48" arrival="230.00" arrivalLane="-290174549#0_0" arrivalPos="118.03" arrivalSpeed="7.92" duration="163.00" routeLength="1499.06" waitingTime="0.00" waitingCount="0" stopTime="0.00" timeLoss="16.68" rerouteNo="0" devices="tripinfo_91" vType="DEFAULT_VEHTYPE" speedFactor="0.96" vaporized=""/>
    <tripinfo id="190" depart="155.00" departLane="4726706#6_0" departPos="5.10" departSpeed="0.00" departDelay="0.20" arrival="230.00" arrivalLane="117055115_0" arrivalPos="0.20" arrivalSpeed="6.57" duration="75.00" routeLength="504.58" waitingTime="0.00" waitingCount="0" stopTime="0.00" timeLoss="8.18" rerouteNo="0" devices="tripinfo_190" vType="DEFAULT_VEHTYPE" speedFactor="0.92" vaporized=""/>
    <tripinfo id="83" depart="78.00" departLane="-8382282#1_0" departPos="5.10" departSpeed="0.00" departDelay="0.24" arrival="231.00" arrivalLane="4318242#0_0" arrivalPos="79.80" arrivalSpeed="9.55" duration="153.00" routeLength="1290.92" waitingTime="0.00" waitingCount="0" stopTime="0.00" timeLoss="17.02" rerouteNo="0" devices="tripinfo_83" vType="DEFAULT_VEHTYPE" speedFactor="1.16" vaporized=""/>
    <tripinfo id="53" depart="44.00" departLane="-31411842#1_0" departPos="5.10" departSpeed="0.00" departDelay="0.84" arrival="232.00" arrivalLane="150276015#0_0" arrivalPos="157.00" arrivalSpeed="7.32" duration="188.00" routeLength="1314.71" waitingTime="0.00" waitingCount="0" stopTime="0.00" timeLoss="20.91" rerouteNo="0" devices="tripinfo_53" vType="DEFAULT_VEHTYPE" speedFactor="1.01" vaporized=""/>
    <tripinfo id="29" depart="37.00" departLane="-4730648#4_0" departPos="5.10" departSpeed="0.00" departDelay="0.12" arrival="235.00" arrivalLane="14108392_0" arrivalPos="0.20" arrivalSpeed="12.62" duration="198.00" routeLength="1860.86" waitingTime="9.00" waitingCount="2" stopTime="0.00" timeLoss="37.68" rerouteNo="0" devices="tripinfo_29" vType="DEFAULT_VEHTYPE" speedFactor="1.00" vaporized=""/>
    <tripinfo id="45" depart="39.00" departLane="-305670610_0" departPos="4.18" departSpeed="0.00" departDelay="0.60" arrival="237.00" arrivalLane="399914536#0_0" arrivalPos="56.06" arrivalSpeed="6.54" duration="198.00" routeLength="1674.87" waitingTime="16.00" waitingCount="1" stopTime="0.00" timeLoss="41.79" rerouteNo="0" devices="tripinfo_45" vType="DEFAULT_VEHTYPE" speedFactor="1.07" vaporized=""/>
    <tripinfo id="26" depart="25.00" departLane="-96018881#4_0" departPos="5.10" departSpeed="0.00" departDelay="0.28" arrival="238.00" arrivalLane="8382385_0" arrivalPos="19.45" arrivalSpeed="7.75" duration="213.00" routeLength="1227.12" waitingTime="65.00" waitingCount="4" stopTime="0.00" timeLoss="92.05" rerouteNo="0" devices="tripinfo_26" vType="DEFAULT_VEHTYPE" speedFactor="1.00" vaporized=""/>
    <tripinfo id="106" depart="93.00" departLane="175206107#0_0" departPos="5.10" departSpeed="0.00" departDelay="0.68" arrival="239.00" arrivalLane="150275988#0_0" arrivalPos="78.05" arrivalSpeed="9.04" duration="146.00" routeLength="1234.83" waitingTime="0.00" waitingCount="0" stopTime="0.00" timeLoss="15.21" rerouteNo="0" devices="tripinfo_106" vType="DEFAULT_VEHTYPE" speedFactor="1.14" vaporized=""/>
    <tripinfo id="139" depart="104.00" departLane="1041085657#0_0" departPos="5.10" departSpeed="0.00" departDelay="0.92" arrival="239.00" arrivalLane="-36786445#2_0" arrivalPos="3.14" arrivalSpeed="7.30" duration="135.00" routeLength="865.48" waitingTime="9.00" waitingCount="2" stopTime="0.00" timeLoss="27.02" rerouteNo="1" devices="tripinfo_139" vType="DEFAULT_VEHTYPE" speedFactor="0.96" vaporized=""/>
    <tripinfo id="70" depart="68.00" departLane="198077804#4_0" departPos="5.10" departSpeed="0.00" departDelay="4.60" arrival="241.00" arrivalLane="302657565#0_0" arrivalPos="212.13" arrivalSpeed="8.05" duration="173.00" routeLength="1470.31" waitingTime="0.00" waitingCount="0" stopTime="0.00" timeLoss="20.44" rerouteNo="0" devices="tripinfo_70" vType="DEFAULT_VEHTYPE" speedFactor="0.98" vaporized=""/>
    <tripinfo id="128" depart="113.00" departLane="-220267106#1_0" departPos="5.10" departSpeed="0.00" departDelay="0.84" arrival="242.00" arrivalLane="-654207127#5_0" arrivalPos="19.07" arrivalSpeed="2.39" duration="129.00" routeLength="458.07" waitingTime="0.00" waitingCount="0" stopTime="0.00" timeLoss="25.43" rerouteNo="0" devices="tripinfo_128" vType="DEFAULT_VEHTYPE" speedFactor="1.05" vaporized=""/>
    <tripinfo id="124" depart="99.00" departLane="4392761#0_0" departPos="5.10" departSpeed="0.00" departDelay="0.72" arrival="244.00" arrivalLane="117055114_0" arrivalPos="44.95" arrivalSpeed="6.94" duration="145.00" routeLength="1215.88" waitingTime="0.00" waitingCount="0" stopTime="0.00" timeLoss="16.56" rerouteNo="0" devices="tripinfo_124" vType="DEFAULT_VEHTYPE" speedFactor="0.96" vaporized=""/>
    <tripinfo id="250" depart="190.00" departLane="396926516#0_0" departPos="4.69" departSpeed="0.00" departDelay="0.00" arrival="247.00" arrivalLane="-13764389_0" arrivalPos="0.72" arrivalSpeed="3.75" duration="57.00" routeLength="415.75" waitingTime="0.00" waitingCount="0" stopTime="0.00" timeLoss="7.71" rerouteNo="0" devices="tripinfo_250" vType="DEFAULT_VEHTYPE" speedFactor="1.03" vaporized=""/>
    <tripinfo id="52" depart="39.00" departLane="-96018881#4_0" departPos="5.10" departSpeed="0.00" departDelay="0.56" arrival="248.00" arrivalLane="40487883#0_0" arrivalPos="75.23" arrivalSpeed="7.57" duration="209.00" routeLength="1996.74" waitingTime="9.00" waitingCount="2" stopTime="0.00" timeLoss="46.88" rerouteNo="0" devices="tripinfo_52" vType="DEFAULT_VEHTYPE" speedFactor="1.04" vaporized=""/>
    <tripinfo id="46" depart="38.00" departLane="5450860#1_0" departPos="5.10" departSpeed="0.00" departDelay="0.88" arrival="249.00" arrivalLane="150275986#5_0" arrivalPos="48.71" arrivalSpeed="8.54" duration="211.00" routeLength="1619.70" waitingTime="9.00" waitingCount="1" stopTime="0.00" timeLoss="34.28" rerouteNo="0" devices="tripinfo_46" vType="DEFAULT_VEHTYPE" speedFactor="1.10" vaporized=""/>
    <tripinfo id="13" depart="22.00" departLane="-244422544#1_0" departPos="5.10" departSpeed="0.00" departDelay="0.64" arrival="250.00" arrivalLane="-290172304_0" arrivalPos="100.09" arrivalSpeed="8.46" duration="228.00" routeLength="1754.68" waitingTime="0.00" waitingCount="0" stopTime="0.00" timeLoss="28.11" rerouteNo="1" devices="tripinfo_13" vType="DEFAULT_VEHTYPE" speedFactor="1.05" vaporized=""/>
    <tripinfo id="177" depart="137.00" departLane="856293285#0_0" departPos="5.10" departSpeed="0.00" departDelay="0.56" arrival="250.00" arrivalLane="-510702675#4_0" arrivalPos="98.24" arrivalSpeed="7.10" duration="113.00" routeLength="643.27" waitingTime="24.00" waitingCount="2" stopTime="0.00" timeLoss="38.94" rerouteNo="0" devices="tripinfo_177" vType="DEFAULT_VEHTYPE" speedFactor="1.01" vaporized=""/>
    <tripinfo id="74" depart="63.00" departLane="-628762074#2_0" departPos="5.10" departSpeed="0.00" departDelay="0.72" arrival="251.00" arrivalLane="1198625656_0" arrivalPos="56.87" arrivalSpeed="7.67" duration="188.00" routeLength="1127.34" waitingTime="31.00" waitingCount="2" stopTime="0.00" timeLoss="60.04" rerouteNo="0" devices="tripinfo_74" vType="DEFAULT_VEHTYPE" speedFactor="1.07" vaporized=""/>
    <tripinfo id="93" depart="81.00" departLane="65583365#0_0" departPos="5.10" departSpeed="0.00" departDelay="0.04" arrival="251.00" arrivalLane="-8382393#3_0" arrivalPos="101.67" arrivalSpeed="8.53" duration="170.00" routeLength="1426.92" waitingTime="0.00" waitingCount="0" stopTime="0.00" timeLoss="17.72" rerouteNo="0" devices="tripinfo_93" vType="DEFAULT_VEHTYPE" speedFactor="1.11" vaporized=""/>
    <tripinfo id="132" depart="100.00" departLane="628781006#1_0" departPos="5.10" departSpeed="0.00" departDelay="0.96" arrival="253.00" arrivalLane="4726684#0_0" arrivalPos="33.91" arrivalSpeed="8.62" duration="153.00" routeLength="1164.69" waitingTime="9.00" waitingCount="1" stopTime="0.00" timeLoss="28.17" rerouteNo="0" devices="tripinfo_132" vType="DEFAULT_VEHTYPE" speedFactor="1.09" vaporized=""/>
    <tripinfo id="178" depart="143.00" departLane="8384928_0" departPos="5.10" departSpeed="0.00" departDelay="0.84" arrival="253.00" arrivalLane="1041085657#0_0" arrivalPos="121.90" arrivalSpeed="8.06" duration="110.00" routeLength="718.69" waitingTime="4.00" waitingCount="1" stopTime="0.00" timeLoss="19.32" rerouteNo="0" devices="tripinfo_178" vType="DEFAULT_VEHTYPE" speedFactor="0.97" vaporized=""/>
    <tripinfo id="30" depart="35.00" departLane="95742114_0" departPos="5.10" departSpeed="0.00" departDelay="0.40" arrival="255.00" arrivalLane="403882374_1" arrivalPos="0.20" arrivalSpeed="6.61" duration="220.00" routeLength="3014.00" waitingTime="0.00" waitingCount="0" stopTime="0.00" timeLoss="20.64" rerouteNo="0" devices="tripinfo_30" vType="DEFAULT_VEHTYPE" speedFactor="1.12" vaporized=""/>
    <tripinfo id="65" depart="59.00" departLane="1167764376_0" departPos="5.10" departSpeed="0.00" departDelay="0.20" arrival="259.00" arrivalLane="-17670100#4_0" arrivalPos="87.81" arrivalSpeed="7.42" duration="200.00" routeLength="1256.31" waitingTime="30.00" waitingCount="1" stopTime="0.00" timeLoss="52.62" rerouteNo="0" devices="tripinfo_65" vType="DEFAULT_VEHTYPE" speedFactor="1.03" vaporized=""/>
    <tripinfo id="3" depart="20.00" departLane="8140188#3_0" departPos="5.10" departSpeed="0.00" departDelay="0.84" arrival="260.00" arrivalLane="-239757874#3_0" arrivalPos="8.75" arrivalSpeed="7.91" duration="240.00" routeLength="1771.67" waitingTime="1.00" waitingCount="1" stopTime="0.00" timeLoss="26.92" rerouteNo="0" devices="tripinfo_3" vType="DEFAULT_VEHTYPE" speedFactor="1.01" vaporized=""/>
    <tripinfo id="174" depart="139.00" departLane="403882374_0" departPos="0.20" departSpeed="0.00" departDelay="0.72" arrival="260.00" arrivalLane="14471542#9_0" arrivalPos="68.00" arrivalSpeed="8.34" duration="121.00" routeLength="509.20" waitingTime="44.00" waitingCount="2" stopTime="0.00" timeLoss="61.43" rerouteNo="0" devices="tripinfo_174" vType="DEFAULT_VEHTYPE" speedFactor="1.00" vaporized=""/>
    <tripinfo id="164" depart="136.00" departLane="606127854#0_0" departPos="5.10" departSpeed="0.00" departDelay="0.92" arrival="262.00" arrivalLane="687383599#0_1" arrivalPos="12.56" arrivalSpeed="13.75" duration="126.00" routeLength="1133.26" waitingTime="0.00" waitingCount="0" stopTime="0.00" timeLoss="12.21" rerouteNo="1" devices="tripinfo_164" vType="DEFAULT_VEHTYPE" speedFactor="1.05" vaporized=""/>
    <tripinfo id="54" depart="50.00" departLane="175206104_0" departPos="5.10" departSpeed="0.00" departDelay="0.12" arrival="263.00" arrivalLane="8384893#0_0" arrivalPos="79.02" arrivalSpeed="9.63" duration="213.00" routeLength="1471.40" waitingTime="32.00" waitingCount="2" stopTime="0.00" timeLoss="66.97" rerouteNo="0" devices="tripinfo_54" vType="DEFAULT_VEHTYPE" speedFactor="1.22" vaporized=""/>
    <tripinfo id="95" depart="72.00" departLane="150275991#0_0" departPos="5.10" departSpeed="0.00" departDelay="0.60" arrival="264.00" arrivalLane="1083809476#0_0" arrivalPos="72.33" arrivalSpeed="8.20" duration="192.00" routeLength="1566.54" waitingTime="0.00" waitingCount="0" stopTime="0.00" timeLoss="20.01" rerouteNo="0" devices="tripinfo_95" vType="DEFAULT_VEHTYPE" speedFactor="1.06" vaporized=""/>
    <tripinfo id="215" depart="165.00" departLane="-30324793_0" departPos="5.10" departSpeed="0.00" departDelay="0.20" arrival="267.00" arrivalLane="150275991#0_0" arrivalPos="27.02" arrivalSpeed="7.75" duration="102.00" routeLength="593.73" waitingTime="16.00" waitingCount="1" stopTime="0.00" timeLoss="27.99" rerouteNo="0" devices="tripinfo_215" vType="DEFAULT_VEHTYPE" speedFactor="0.98" vaporized=""/>
    <tripinfo id="179" depart="143.00" departLane="-30324793_0" departPos="5.10" departSpeed="0.00" departDelay="0.12" arrival="268.00" arrivalLane="150276015#0_0" arrivalPos="157.00" arrivalSpeed="8.09" duration="125.00" routeLength="844.45" waitingTime="7.00" waitingCount="1" stopTime="0.00" timeLoss="22.84" rerouteNo="0" devices="tripinfo_179" vType="DEFAULT_VEHTYPE" speedFactor="1.00" vaporized=""/>
    <tripinfo id="204" depart="160.00" departLane="400961599#0_0" departPos="5.10" departSpeed="0.00" departDelay="0.12" arrival="269.00" arrivalLane="124862963#0_0" arrivalPos="89.92" arrivalSpeed="12.84" duration="109.00" routeLength="756.34" waitingTime="9.00" waitingCount="2" stopTime="0.00" timeLoss="32.34" rerouteNo="0" devices="tripinfo_204" vType="DEFAULT_VEHTYPE" speedFactor="0.93" vaporized=""/>
    <tripinfo id="24" depart="27.00" departLane="400961625#0_0" departPos="5.10" departSpeed="0.00" departDelay="0.72" arrival="270.00" arrivalLane="137238867#2_0" arrivalPos="12.16" arrivalSpeed="8.58" duration="243.00" routeLength="2685.54" waitingTime="13.00" waitingCount="1" stopTime="0.00" timeLoss="37.86" rerouteNo="0" devices="tripinfo_24" vType="DEFAULT_VEHTYPE" speedFactor="1.07" vaporized=""/>
    <tripinfo id="92" depart="68.00" departLane="150275971_0" departPos="5.10" departSpeed="0.00" departDelay="0.76" arrival="271.00" arrivalLane="1263954924_0" arrivalPos="0.20" arrivalSpeed="6.77" duration="203.00" routeLength="1636.49" waitingTime="0.00" waitingCount="0" stopTime="0.00" timeLoss="25.59" rerouteNo="1" devices="tripinfo_92" vType="DEFAULT_VEHTYPE" speedFactor="1.12" vaporized=""/>