<?xml version="1.0" encoding="UTF-8"?>

<!-- generated on 2024-08-29 16:39:58 by Eclipse SUMO sumo Version 1.20.0
<configuration xmlns:xsi="http://www.w3.org/2001/XMLSchema-instance" xsi:noNamespaceSchemaLocation="http://sumo.dlr.de/xsd/sumoConfiguration.xsd">

    <input>
        <net-file value="/Users/dguastel/TULIPE_SCENARIO_OSM/tulipe_highways/tulipe_highways.rev.net.xml"/>
        <route-files value="output/924e23ea-d5c8-4647-ad64-4a53655b39c5/routes.xml"/>
        <additional-files value="output/924e23ea-d5c8-4647-ad64-4a53655b39c5/edgedata.no_roadworks.add.xml"/>
    </input>

    <output>
        <tripinfo-output value="output/924e23ea-d5c8-4647-ad64-4a53655b39c5/tripinfo.out.xml"/>
        <tripinfo-output.write-unfinished value="true"/>
    </output>

    <time>
        <begin value="0"/>
        <end value="3600"/>
    </time>

    <processing>
        <ignore-route-errors value="true"/>
        <random-depart-offset value="20.0"/>
    </processing>

    <random_number>
        <random value="true"/>
    </random_number>

</configuration>
-->

<tripinfos xmlns:xsi="http://www.w3.org/2001/XMLSchema-instance" xsi:noNamespaceSchemaLocation="http://sumo.dlr.de/xsd/tripinfo_file.xsd">
    <tripinfo id="55" depart="53.00" departLane="745660413#0_0" departPos="5.10" departSpeed="0.00" departDelay="0.40" arrival="70.00" arrivalLane="1024105863_0" arrivalPos="26.14" arrivalSpeed="8.07" duration="17.00" routeLength="101.37" waitingTime="0.00" waitingCount="0" stopTime="0.00" timeLoss="3.84" rerouteNo="0" devices="tripinfo_55" vType="DEFAULT_VEHTYPE" speedFactor="0.98" vaporized=""/>
    <tripinfo id="1" depart="11.00" departLane="1053478469#1_0" departPos="5.10" departSpeed="0.00" departDelay="0.28" arrival="102.00" arrivalLane="-781742860#5_0" arrivalPos="32.45" arrivalSpeed="7.63" duration="91.00" routeLength="647.67" waitingTime="0.00" waitingCount="0" stopTime="0.00" timeLoss="9.91" rerouteNo="0" devices="tripinfo_1" vType="DEFAULT_VEHTYPE" speedFactor="0.98" vaporized=""/>
    <tripinfo id="56" depart="52.00" departLane="231475823#0_0" departPos="5.10" departSpeed="0.00" departDelay="0.68" arrival="118.00" arrivalLane="-510702675#4_0" arrivalPos="98.24" arrivalSpeed="9.14" duration="66.00" routeLength="323.47" waitingTime="22.00" waitingCount="1" stopTime="0.00" timeLoss="30.10" rerouteNo="0" devices="tripinfo_56" vType="DEFAULT_VEHTYPE" speedFactor="1.11" vaporized=""/>
    <tripinfo id="4" depart="17.00" departLane="150275991#0_0" departPos="5.10" departSpeed="0.00" departDelay="0.12" arrival="119.00" arrivalLane="-13853659#1_0" arrivalPos="26.47" arrivalSpeed="4.34" duration="102.00" routeLength="726.25" waitingTime="0.00" waitingCount="0" stopTime="0.00" timeLoss="9.90" rerouteNo="0" devices="tripinfo_4" vType="DEFAULT_VEHTYPE" speedFactor="0.97" vaporized=""/>
    <tripinfo id="31" depart="32.00" departLane="307372339#0_0" departPos="5.10" departSpeed="0.00" departDelay="0.68" arrival="121.00" arrivalLane="450186404_0" arrivalPos="75.65" arrivalSpeed="6.97" duration="89.00" routeLength="516.30" waitingTime="14.00" waitingCount="1" stopTime="0.00" timeLoss="24.38" rerouteNo="0" devices="tripinfo_31" vType="DEFAULT_VEHTYPE" speedFactor="0.96" vaporized=""/>
    <tripinfo id="47" depart="51.00" departLane="-17670100#4_0" departPos="5.10" departSpeed="0.00" departDelay="0.16" arrival="124.00" arrivalLane="14118784#0_0" arrivalPos="104.44" arrivalSpeed="8.28" duration="73.00" routeLength="596.77" waitingTime="0.00" waitingCount="0" stopTime="0.00" timeLoss="6.59" rerouteNo="0" devices="tripinfo_47" vType="DEFAULT_VEHTYPE" speedFactor="1.10" vaporized=""/>
    <tripinfo id="21" depart="16.00" departLane="-8140188#8_0" departPos="5.10" departSpeed="0.00" departDelay="0.88" arrival="129.00" arrivalLane="11294375#0_0" arrivalPos="66.35" arrivalSpeed="7.76" duration="113.00" routeLength="886.25" waitingTime="0.00" waitingCount="0" stopTime="0.00" timeLoss="12.05" rerouteNo="0" devices="tripinfo_21" vType="DEFAULT_VEHTYPE" speedFactor="1.06" vaporized=""/>
    <tripinfo id="10" depart="22.00" departLane="606502609_0" departPos="0.20" departSpeed="0.00" departDelay="0.80" arrival="135.00" arrivalLane="4726679#1_0" arrivalPos="47.90" arrivalSpeed="6.55" duration="113.00" routeLength="533.76" waitingTime="0.00" waitingCount="0" stopTime="0.00" timeLoss="14.57" rerouteNo="0" devices="tripinfo_10" vType="DEFAULT_VEHTYPE" speedFactor="0.89" vaporized=""/>
    <tripinfo id="79" depart="60.00" departLane="-8140197#2_0" departPos="5.10" departSpeed="0.00" departDelay="0.12" arrival="135.00" arrivalLane="-781650841_0" arrivalPos="71.98" arrivalSpeed="13.67" duration="75.00" routeLength="608.16" waitingTime="0.00" waitingCount="0" stopTime="0.00" timeLoss="8.72" rerouteNo="0" devices="tripinfo_79" vType="DEFAULT_VEHTYPE" speedFactor="1.05" vaporized=""/>
    <tripinfo id="15" depart="12.00" departLane="610739513#1_0" departPos="5.10" departSpeed="0.00" departDelay="0.20" arrival="138.00" arrivalLane="4730634#0_0" arrivalPos="128.10" arrivalSpeed="9.28" duration="126.00" routeLength="1075.01" waitingTime="0.00" waitingCount="0" stopTime="0.00" timeLoss="10.74" rerouteNo="0" devices="tripinfo_15" vType="DEFAULT_VEHTYPE" speedFactor="1.13" vaporized=""/>
    <tripinfo id="108" depart="92.00" departLane="305670610_0" departPos="4.09" departSpeed="0.00" departDelay="0.24" arrival="138.00" arrivalLane="4730609_1" arrivalPos="86.37" arrivalSpeed="8.54" duration="46.00" routeLength="514.52" waitingTime="0.00" waitingCount="0" stopTime="0.00" timeLoss="7.30" rerouteNo="0" devices="tripinfo_108" vType="DEFAULT_VEHTYPE" speedFactor="1.12" vaporized=""/>
    <tripinfo id="17" depart="19.00" departLane="14118785#1_0" departPos="5.10" departSpeed="0.00" departDelay="0.76" arrival="147.00" arrivalLane="307372337#0_0" arrivalPos="29.89" arrivalSpeed="7.47" duration="128.00" routeLength="901.91" waitingTime="4.00" waitingCount="1" stopTime="0.00" timeLoss="17.73" rerouteNo="0" devices="tripinfo_17" vType="DEFAULT_VEHTYPE" speedFactor="0.98" vaporized=""/>
    <tripinfo id="7" depart="19.00" departLane="40493501#2_0" departPos="5.10" departSpeed="0.00" departDelay="0.96" arrival="153.00" arrivalLane="290174551#1_0" arrivalPos="5.51" arrivalSpeed="6.87" duration="134.00" routeLength="878.95" waitingTime="0.00" waitingCount="0" stopTime="0.00" timeLoss="13.49" rerouteNo="0" devices="tripinfo_7" vType="DEFAULT_VEHTYPE" speedFactor="0.92" vaporized=""/>
    <tripinfo id="9" depart="19.00" departLane="62020111_0" departPos="5.10" departSpeed="0.00" departDelay="0.52" arrival="159.00" arrivalLane="-1167764376_0" arrivalPos="66.38" arrivalSpeed="8.29" duration="140.00" routeLength="1265.58" waitingTime="2.00" waitingCount="1" stopTime="0.00" timeLoss="21.85" rerouteNo="0" devices="tripinfo_9" vType="DEFAULT_VEHTYPE" speedFactor="1.03" vaporized=""/>
    <tripinfo id="130" depart="113.00" departLane="7682866#0_0" departPos="5.10" departSpeed="0.00" departDelay="0.40" arrival="163.00" arrivalLane="7682866#2_0" arrivalPos="23.46" arrivalSpeed="7.60" duration="50.00" routeLength="357.27" waitingTime="0.00" waitingCount="0" stopTime="0.00" timeLoss="4.75" rerouteNo="0" devices="tripinfo_130" vType="DEFAULT_VEHTYPE" speedFactor="0.96" vaporized=""/>
    <tripinfo id="115" depart="95.00" departLane="-220267247#5_0" departPos="5.10" departSpeed="0.00" departDelay="0.20" arrival="164.00" arrivalLane="-524150311#0_0" arrivalPos="13.37" arrivalSpeed="8.78" duration="69.00" routeLength="556.30" waitingTime="0.00" waitingCount="0" stopTime="0.00" timeLoss="6.94" rerouteNo="0" devices="tripinfo_115" vType="DEFAULT_VEHTYPE" speedFactor="1.09" vaporized=""/>
    <tripinfo id="96" depart="76.00" departLane="-8382445#1_0" departPos="5.10" departSpeed="0.00" departDelay="0.88" arrival="165.00" arrivalLane="8382302#0_0" arrivalPos="79.20" arrivalSpeed="7.44" duration="89.00" routeLength="650.94" waitingTime="0.00" waitingCount="0" stopTime="0.00" timeLoss="8.08" rerouteNo="0" devices="tripinfo_96" vType="DEFAULT_VEHTYPE" speedFactor="0.97" vaporized=""/>
    <tripinfo id="32" depart="31.00" departLane="628782531_0" departPos="5.10" departSpeed="0.00" departDelay="0.96" arrival="170.00" arrivalLane="510702678#1_0" arrivalPos="70.72" arrivalSpeed="7.72" duration="139.00" routeLength="1420.05" waitingTime="5.00" waitingCount="1" stopTime="0.00" timeLoss="20.43" rerouteNo="0" devices="tripinfo_32" vType="DEFAULT_VEHTYPE" speedFactor="1.04" vaporized=""/>
    <tripinfo id="43" depart="43.00" departLane="963479927#0_0" departPos="5.10" departSpeed="0.00" departDelay="0.04" arrival="175.00" arrivalLane="23179512#1_0" arrivalPos="91.48" arrivalSpeed="8.07" duration="132.00" routeLength="868.65" waitingTime="30.00" waitingCount="1" stopTime="0.00" timeLoss="45.35" rerouteNo="0" devices="tripinfo_43" vType="DEFAULT_VEHTYPE" speedFactor="1.00" vaporized=""/>
    <tripinfo id="41" depart="47.00" departLane="31448934#1_0" departPos="5.10" departSpeed="0.00" departDelay="0.48" arrival="186.00" arrivalLane="8152033#1_0" arrivalPos="26.93" arrivalSpeed="7.18" duration="139.00" routeLength="851.28" waitingTime="7.00" waitingCount="1" stopTime="0.00" timeLoss="24.26" rerouteNo="0" devices="tripinfo_41" vType="DEFAULT_VEHTYPE" speedFactor="0.95" vaporized=""/>
    <tripinfo id="23" depart="19.00" departLane="-29023870#1_0" departPos="5.10" departSpeed="0.00" departDelay="0.44" arrival="193.00" arrivalLane="1083809476#0_0" arrivalPos="72.33" arrivalSpeed="7.51" duration="174.00" routeLength="1936.56" waitingTime="0.00" waitingCount="0" stopTime="0.00" timeLoss="13.15" rerouteNo="0" devices="tripinfo_23" vType="DEFAULT_VEHTYPE" speedFactor="0.99" vaporized=""/>
    <tripinfo id="29" depart="30.00" departLane="-4730648#4_0" departPos="5.10" departSpeed="0.00" departDelay="0.12" arrival="200.00" arrivalLane="14108392_0" arrivalPos="0.20" arrivalSpeed="14.18" duration="170.00" routeLength="1860.86" waitingTime="0.00" waitingCount="0" stopTime="0.00" timeLoss="17.22" rerouteNo="0" devices="tripinfo_29" vType="DEFAULT_VEHTYPE" speedFactor="1.04" vaporized=""/>
    <tripinfo id="146" depart="118.00" departLane="40151775_0" departPos="5.10" departSpeed="0.00" departDelay="0.88" arrival="201.00" arrivalLane="-95742119#1_0" arrivalPos="3.64" arrivalSpeed="4.06" duration="83.00" routeLength="538.11" waitingTime="0.00" waitingCount="0" stopTime="0.00" timeLoss="15.55" rerouteNo="0" devices="tripinfo_146" vType="DEFAULT_VEHTYPE" speedFactor="0.88" vaporized=""/>
    <tripinfo id="14" depart="19.00" departLane="653443701_0" departPos="5.10" departSpeed="0.00" departDelay="0.92" arrival="202.00" arrivalLane="36786443#0_0" arrivalPos="160.05" arrivalSpeed="7.84" duration="183.00" routeLength="1254.46" waitingTime="11.00" waitingCount="3" stopTime="0.00" timeLoss="38.87" rerouteNo="0" devices="tripinfo_14" vType="DEFAULT_VEHTYPE" speedFactor="0.95" vaporized=""/>
    <tripinfo id="33" depart="27.00" departLane="-8140193#2_0" departPos="5.10" departSpeed="0.00" departDelay="0.24" arrival="202.00" arrivalLane="-14118784#2_0" arrivalPos="30.19" arrivalSpeed="7.05" duration="175.00" routeLength="1175.29" waitingTime="0.00" waitingCount="0" stopTime="0.00" timeLoss="16.66" rerouteNo="0" devices="tripinfo_33" vType="DEFAULT_VEHTYPE" speedFactor="0.90" vaporized=""/>
    <tripinfo id="70" depart="54.00" departLane="198077804#4_0" departPos="5.10" departSpeed="0.00" departDelay="0.60" arrival="202.00" arrivalLane="302657565#0_0" arrivalPos="212.13" arrivalSpeed="9.04" duration="148.00" routeLength="1470.31" waitingTime="0.00" waitingCount="0" stopTime="0.00" timeLoss="14.70" rerouteNo="0" devices="tripinfo_70" vType="DEFAULT_VEHTYPE" speedFactor="1.12" vaporized=""/>
    <tripinfo id="11" depart="20.00" departLane="1287393211#3_0" departPos="5.10" departSpeed="0.00" departDelay="0.08" arrival="204.00" arrivalLane="-4426076#0_0" arrivalPos="30.91" arrivalSpeed="7.47" duration="184.00" routeLength="1199.05" waitingTime="5.00" waitingCount="2" stopTime="0.00" timeLoss="30.21" rerouteNo="0" devices="tripinfo_11" vType="DEFAULT_VEHTYPE" speedFactor="0.91" vaporized=""/>
    <tripinfo id="26" depart="19.00" departLane="-96018881#4_0" departPos="5.10" departSpeed="0.00" departDelay="0.28" arrival="206.00" arrivalLane="8382385_0" arrivalPos="19.45" arrivalSpeed="7.63" duration="187.00" routeLength="1227.12" waitingTime="36.00" waitingCount="3" stopTime="0.00" timeLoss="63.22" rerouteNo="0" devices="tripinfo_26" vType="DEFAULT_VEHTYPE" speedFactor="0.98" vaporized=""/>
    <tripinfo id="189" depart="144.00" departLane="1174387992_0" departPos="3.66" departSpeed="0.00" departDelay="0.92" arrival="208.00" arrivalLane="628782530_0" arrivalPos="3.16" arrivalSpeed="6.15" duration="64.00" routeLength="698.83" waitingTime="2.00" waitingCount="1" stopTime="0.00" timeLoss="16.50" rerouteNo="0" devices="tripinfo_189" vType="DEFAULT_VEHTYPE" speedFactor="1.10" vaporized=""/>
    <tripinfo id="28" depart="39.00" departLane="-4760584#1_0" departPos="5.10" departSpeed="0.00" departDelay="0.84" arrival="212.00" arrivalLane="4730633#0_0" arrivalPos="63.51" arrivalSpeed="7.53" duration="173.00" routeLength="1294.36" waitingTime="0.00" waitingCount="0" stopTime="0.00" timeLoss="15.21" rerouteNo="0" devices="tripinfo_28" vType="DEFAULT_VEHTYPE" speedFactor="0.99" vaporized=""/>
    <tripinfo id="69" depart="56.00" departLane="4760584#0_0" departPos="5.10" departSpeed="0.00" departDelay="0.32" arrival="214.00" arrivalLane="-40493501#3_0" arrivalPos="158.42" arrivalSpeed="6.10" duration="158.00" routeLength="948.51" waitingTime="0.00" waitingCount="0" stopTime="0.00" timeLoss="17.59" rerouteNo="0" devices="tripinfo_69" vType="DEFAULT_VEHTYPE" speedFactor="0.82" vaporized=""/>
    <tripinfo id="190" depart="153.00" departLane="4726706#6_0" departPos="5.10" departSpeed="0.00" departDelay="0.20" arrival="214.00" arrivalLane="117055115_0" arrivalPos="0.20" arrivalSpeed="8.17" duration="61.00" routeLength="504.58" waitingTime="0.00" waitingCount="0" stopTime="0.00" timeLoss="7.07" rerouteNo="0" devices="tripinfo_190" vType="DEFAULT_VEHTYPE" speedFactor="1.13" vaporized=""/>
    <tripinfo id="13" depart="28.00" departLane="-244422544#1_0" departPos="5.10" departSpeed="0.00" departDelay="0.64" arrival="220.00" arrivalLane="-290172304_0" arrivalPos="100.09" arrivalSpeed="7.25" duration="192.00" routeLength="1471.56" waitingTime="0.00" waitingCount="0" stopTime="0.00" timeLoss="19.61" rerouteNo="0" devices="tripinfo_13" vType="DEFAULT_VEHTYPE" speedFactor="1.01" vaporized=""/>
    <tripinfo id="53" depart="44.00" departLane="-31411842#1_0" departPos="5.10" departSpeed="0.00" departDelay="0.84" arrival="223.00" arrivalLane="150276015#0_0" arrivalPos="157.00" arrivalSpeed="7.66" duration="179.00" routeLength="1314.71" waitingTime="0.00" waitingCount="0" stopTime="0.00" timeLoss="19.79" rerouteNo="0" devices="tripinfo_53" vType="DEFAULT_VEHTYPE" speedFactor="1.06" vaporized=""/>
    <tripinfo id="83" depart="67.00" departLane="-8382282#1_0" departPos="5.10" departSpeed="0.00" departDelay="2.24" arrival="224.00" arrivalLane="4318242#0_0" arrivalPos="79.80" arrivalSpeed="9.39" duration="157.00" routeLength="1290.92" waitingTime="0.00" waitingCount="0" stopTime="0.00" timeLoss="18.79" rerouteNo="0" devices="tripinfo_83" vType="DEFAULT_VEHTYPE" speedFactor="1.14" vaporized=""/>
    <tripinfo id="204" depart="150.00" departLane="400961599#0_0" departPos="5.10" departSpeed="0.00" departDelay="0.12" arrival="225.00" arrivalLane="124862963#0_0" arrivalPos="89.92" arrivalSpeed="14.68" duration="75.00" routeLength="756.34" waitingTime="0.00" waitingCount="0" stopTime="0.00" timeLoss="11.26" rerouteNo="0" devices="tripinfo_204" vType="DEFAULT_VEHTYPE" speedFactor="1.12" vaporized=""/>
    <tripinfo id="61" depart="48.00" departLane="510702675#0_0" departPos="5.10" departSpeed="0.00" departDelay="0.08" arrival="226.00" arrivalLane="265117578_0" arrivalPos="151.84" arrivalSpeed="8.29" duration="178.00" routeLength="1179.11" waitingTime="15.00" waitingCount="1" stopTime="0.00" timeLoss="36.22" rerouteNo="0" devices="tripinfo_61" vType="DEFAULT_VEHTYPE" speedFactor="1.00" vaporized=""/>
    <tripinfo id="212" depart="165.00" departLane="220267247#2_0" departPos="3.57" departSpeed="0.00" departDelay="0.36" arrival="226.00" arrivalLane="-8382302#1_0" arrivalPos="190.32" arrivalSpeed="8.66" duration="61.00" routeLength="465.98" waitingTime="0.00" waitingCount="0" stopTime="0.00" timeLoss="6.71" rerouteNo="0" devices="tripinfo_212" vType="DEFAULT_VEHTYPE" speedFactor="1.05" vaporized=""/>
    <tripinfo id="22" depart="18.00" departLane="-220267247#5_0" departPos="5.10" departSpeed="0.00" departDelay="0.16" arrival="228.00" arrivalLane="-8140197#2_0" arrivalPos="78.81" arrivalSpeed="7.43" duration="210.00" routeLength="1237.96" waitingTime="6.00" waitingCount="2" stopTime="0.00" timeLoss="59.36" rerouteNo="0" devices="tripinfo_22" vType="DEFAULT_VEHTYPE" speedFactor="0.99" vaporized=""/>
    <tripinfo id="247" depart="195.00" departLane="1263955158#1_0" departPos="5.10" departSpeed="0.00" departDelay="0.16" arrival="229.00" arrivalLane="4426076#1_0" arrivalPos="56.03" arrivalSpeed="8.27" duration="34.00" routeLength="234.61" waitingTime="0.00" waitingCount="0" stopTime="0.00" timeLoss="5.50" rerouteNo="0" devices="tripinfo_247" vType="DEFAULT_VEHTYPE" speedFactor="1.06" vaporized=""/>
    <tripinfo id="0" depart="0.00" departLane="40151780#0_0" departPos="5.10" departSpeed="0.00" departDelay="0.00" arrival="231.00" arrivalLane="-13764245#1_0" arrivalPos="218.00" arrivalSpeed="7.21" duration="231.00" routeLength="1808.00" waitingTime="11.00" waitingCount="1" stopTime="0.00" timeLoss="33.65" rerouteNo="0" devices="tripinfo_0" vType="DEFAULT_VEHTYPE" speedFactor="0.92" vaporized=""/>
    <tripinfo id="45" depart="49.00" departLane="-305670610_0" departPos="4.18" departSpeed="0.00" departDelay="0.60" arrival="231.00" arrivalLane="399914536#0_0" arrivalPos="56.06" arrivalSpeed="8.51" duration="182.00" routeLength="1674.87" waitingTime="8.00" waitingCount="1" stopTime="0.00" timeLoss="29.29" rerouteNo="0" devices="tripinfo_45" vType="DEFAULT_VEHTYPE" speedFactor="1.09" vaporized=""/>
    <tripinfo id="174" depart="146.00" departLane="403882374_0" departPos="0.20" departSpeed="0.00" departDelay="0.72" arrival="234.00" arrivalLane="14471542#9_0" arrivalPos="68.00" arrivalSpeed="6.08" duration="88.00" routeLength="509.20" waitingTime="6.00" waitingCount="1" stopTime="0.00" timeLoss="18.90" rerouteNo="0" devices="tripinfo_174" vType="DEFAULT_VEHTYPE" speedFactor="0.88" vaporized=""/>
    <tripinfo id="157" depart="131.00" departLane="510702675#0_0" departPos="5.10" departSpeed="0.00" departDelay="0.96" arrival="241.00" arrivalLane="781742860#4_0" arrivalPos="32.44" arrivalSpeed="8.74" duration="110.00" routeLength="529.85" waitingTime="36.00" waitingCount="2" stopTime="0.00" timeLoss="51.00" rerouteNo="0" devices="tripinfo_157" vType="DEFAULT_VEHTYPE" speedFactor="1.08" vaporized=""/>
    <tripinfo id="215" depart="155.00" departLane="-30324793_0" departPos="5.10" departSpeed="0.00" departDelay="0.20" arrival="241.00" arrivalLane="150275991#0_0" arrivalPos="27.02" arrivalSpeed="7.87" duration="86.00" routeLength="593.73" waitingTime="0.00" waitingCount="0" stopTime="0.00" timeLoss="14.80" rerouteNo="0" devices="tripinfo_215" vType="DEFAULT_VEHTYPE" speedFactor="1.02" vaporized=""/>
    <tripinfo id="94" depart="73.00" departLane="-524150342_0" departPos="0.20" departSpeed="0.00" departDelay="0.32" arrival="244.00" arrivalLane="159636085#1_0" arrivalPos="3.58" arrivalSpeed="8.40" duration="171.00" routeLength="1292.81" waitingTime="9.00" waitingCount="2" stopTime="0.00" timeLoss="26.88" rerouteNo="0" devices="tripinfo_94" vType="DEFAULT_VEHTYPE" speedFactor="1.09" vaporized=""/>
    <tripinfo id="128" depart="112.00" departLane="-220267106#1_0" departPos="5.10" departSpeed="0.00" departDelay="0.84" arrival="247.00" arrivalLane="-654207127#5_0" arrivalPos="19.07" arrivalSpeed="2.05" duration="135.00" routeLength="458.07" waitingTime="0.00" waitingCount="0" stopTime="0.00" timeLoss="27.53" rerouteNo="0" devices="tripinfo_128" vType="DEFAULT_VEHTYPE" speedFactor="1.01" vaporized=""/>
    <tripinfo id="12" depart="21.00" departLane="8384905#0_0" departPos="5.10" departSpeed="0.00" departDelay="0.36" arrival="252.00" arrivalLane="124862963#0_0" arrivalPos="89.92" arrivalSpeed="14.48" duration="231.00" routeLength="1967.79" waitingTime="0.00" waitingCount="0" stopTime="0.00" timeLoss="33.05" rerouteNo="0" devices="tripinfo_12" vType="DEFAULT_VEHTYPE" speedFactor="1.11" vaporized=""/>
    <tripinfo id="178" depart="149.00" departLane="8384928_0" departPos="5.10" departSpeed="0.00" departDelay="0.84" arrival="252.00" arrivalLane="1041085657#0_0" arrivalPos="121.90" arrivalSpeed="8.33" duration="103.00" routeLength="718.69" waitingTime="2.00" waitingCount="1" stopTime="0.00" timeLoss="16.45" rerouteNo="0" devices="tripinfo_178" vType="DEFAULT_VEHTYPE" speedFactor="1.01" vaporized=""/>
    <tripinfo id="34" depart="43.00" departLane="1193930026_0" departPos="5.10" departSpeed="0.00" departDelay="0.52" arrival="253.00" arrivalLane="1053478469#1_0" arrivalPos="29.35" arrivalSpeed="8.80" duration="210.00" routeLength="1499.45" waitingTime="27.00" waitingCount="2" stopTime="0.00" timeLoss="50.80" rerouteNo="0" devices="tripinfo_34" vType="DEFAULT_VEHTYPE" speedFactor="1.10" vaporized=""/>
    <tripinfo id="63" depart="58.00" departLane="-121794825#2_0" departPos="5.10" departSpeed="0.00" departDelay="0.64" arrival="253.00" arrivalLane="8382328#0_0" arrivalPos="261.65" arrivalSpeed="9.11" duration="195.00" routeLength="1228.75" waitingTime="0.00" waitingCount="0" stopTime="0.00" timeLoss="26.87" rerouteNo="0" devices="tripinfo_63" vType="DEFAULT_VEHTYPE" speedFactor="1.15" vaporized=""/>
    <tripinfo id="177" depart="142.00" departLane="856293285#0_0" departPos="5.10" departSpeed="0.00" departDelay="0.56" arrival="255.00" arrivalLane="-510702675#4_0" arrivalPos="98.24" arrivalSpeed="8.51" duration="113.00" routeLength="643.27" waitingTime="24.00" waitingCount="2" stopTime="0.00" timeLoss="44.92" rerouteNo="0" devices="tripinfo_177" vType="DEFAULT_VEHTYPE" speedFactor="1.09" vaporized=""/>
    <tripinfo id="250" depart="194.00" departLane="396926516#0_0" departPos="4.69" departSpeed="0.00" departDelay="0.00" arrival="255.00" arrivalLane="-13764389_0" arrivalPos="0.72" arrivalSpeed="2.81" duration="61.00" routeLength="415.75" waitingTime="3.00" waitingCount="1" stopTime="0.00" timeLoss="13.54" rerouteNo="0" devices="tripinfo_250" vType="DEFAULT_VEHTYPE" speedFactor="1.06" vaporized=""/>
    <tripinfo id="240" depart="175.00" departLane="14471542#12_0" departPos="5.10" departSpeed="0.00" departDelay="0.20" arrival="256.00" arrivalLane="-1156329250_0" arrivalPos="1.26" arrivalSpeed="7.73" duration="81.00" routeLength="829.06" waitingTime="0.00" waitingCount="0" stopTime="0.00" timeLoss="9.40" rerouteNo="0" devices="tripinfo_240" vType="DEFAULT_VEHTYPE" speedFactor="1.00" vaporized=""/>
    <tripinfo id="60" depart="62.00" departLane="47426244#2_0" departPos="5.10" departSpeed="0.00" departDelay="0.80" arrival="258.00" arrivalLane="290172305#0_0" arrivalPos="50.40" arrivalSpeed="5.69" duration="196.00" routeLength="983.60" waitingTime="0.00" waitingCount="0" stopTime="0.00" timeLoss="22.82" rerouteNo="0" devices="tripinfo_60" vType="DEFAULT_VEHTYPE" speedFactor="0.69" vaporized=""/>
    <tripinfo id="74" depart="71.00" departLane="-628762074#2_0" departPos="5.10" departSpeed="0.00" departDelay="0.72" arrival="258.00" arrivalLane="1198625656_0" arrivalPos="56.87" arrivalSpeed="6.86" duration="187.00" routeLength="1127.34" waitingTime="6.00" waitingCount="1" stopTime="0.00" timeLoss="27.33" rerouteNo="0" devices="tripinfo_74" vType="DEFAULT_VEHTYPE" speedFactor="0.86" vaporized=""/>
    <tripinfo id="136" depart="116.00" departLane="413722453#0_0" departPos="5.10" departSpeed="0.00" departDelay="0.08" arrival="258.00" arrivalLane="8382393#0_0" arrivalPos="78.47" arrivalSpeed="6.15" duration="142.00" routeLength="1126.52" waitingTime="8.00" waitingCount="1" stopTime="0.00" timeLoss="25.57" rerouteNo="0" devices="tripinfo_136" vType="DEFAULT_VEHTYPE" speedFactor="0.89" vaporized=""/>
    <tripinfo id="59" depart="47.00" departLane="36801001#1_0" departPos="5.10" departSpeed="0.00" departDelay="0.52" arrival="259.00" arrivalLane="-4426075#1_0" arrivalPos="235.07" arrivalSpeed="6.83" duration="212.00" routeLength="1687.35" waitingTime="0.00" waitingCount="0" stopTime="0.00" timeLoss="19.92" rerouteNo="0" devices="tripinfo_59" vType="DEFAULT_VEHTYPE" speedFactor="0.88" vaporized=""/>
    <tripinfo id="90" depart="78.00" departLane="4726737_0" departPos="5.10" departSpeed="0.00" departDelay="0.20" arrival="261.00" arrivalLane="4392761#0_0" arrivalPos="24.31" arrivalSpeed="11.25" duration="183.00" routeLength="1481.12" waitingTime="1.00" waitingCount="1" stopTime="0.00" timeLoss="24.12" rerouteNo="0" devices="tripinfo_90" vType="DEFAULT_VEHTYPE" speedFactor="1.01" vaporized=""/>
    <tripinfo id="91" depart="80.00" departLane="939752205#2_0" departPos="5.10" departSpeed="0.00" departDelay="0.48" arrival="261.00" arrivalLane="-290174549#0_0" arrivalPos="118.03" arrivalSpeed="8.63" duration="181.00" routeLength="1499.06" waitingTime="28.00" waitingCount="2" stopTime="0.00" timeLoss="51.63" rerouteNo="0" devices="tripinfo_91" vType="DEFAULT_VEHTYPE" speedFactor="1.09" vaporized=""/>
    <tripinfo id="93" depart="74.00" departLane="65583365#0_0" departPos="5.10" departSpeed="0.00" departDelay="1.04" arrival="262.00" arrivalLane="-8382393#3_0" arrivalPos="101.67" arrivalSpeed="7.98" duration="188.00" routeLength="1426.92" waitingTime="3.00" waitingCount="1" stopTime="0.00" timeLoss="32.04" rerouteNo="0" devices="tripinfo_93" vType="DEFAULT_VEHTYPE" speedFactor="1.08" vaporized=""/>
    <tripinfo id="3" depart="12.00" departLane="8140188#3_0" departPos="5.10" departSpeed="0.00" departDelay="0.84" arrival="263.00" arrivalLane="-239757874#3_0" arrivalPos="8.75" arrivalSpeed="7.32" duration="251.00" routeLength="1771.67" waitingTime="0.00" waitingCount="0" stopTime="0.00" timeLoss="22.52" rerouteNo="0" devices="tripinfo_3" vType="DEFAULT_VEHTYPE" speedFactor="0.94" vaporized=""/>
    <tripinfo id="54" depart="46.00" departLane="175206104_0" departPos="5.10" departSpeed="0.00" departDelay="0.12" arrival="264.00" arrivalLane="8384893#0_0" arrivalPos="79.02" arrivalSpeed="9.39" duration="218.00" routeLength="1471.40" waitingTime="12.00" waitingCount="1" stopTime="0.00" timeLoss="62.43" rerouteNo="0" devices="tripinfo_54" vType="DEFAULT_VEHTYPE" speedFactor="1.14" vaporized=""/>
    <tripinfo id="65" depart="63.00" departLane="1167764376_0" departPos="5.10" departSpeed="0.00" departDelay="0.20" arrival="264.00" arrivalLane="-17670100#4_0" arrivalPos="87.81" arrivalSpeed="7.76" duration="201.00" routeLength="1256.31" waitingTime="15.00" waitingCount="2" stopTime="0.00" timeLoss="50.44" rerouteNo="0" devices="tripinfo_65" vType="DEFAULT_VEHTYPE" speedFactor="1.01" vaporized=""/>
    <tripinfo id="124" depart="106.00" departLane="4392761#0_0" departPos="5.10" departSpeed="0.00" departDelay="0.72" arrival="267.00" arrivalLane="117055114_0" arrivalPos="44.95" arrivalSpeed="7.24" duration="161.00" routeLength="1215.88" waitingTime="0.00" waitingCount="0" stopTime="0.00" timeLoss="23.42" rerouteNo="0" devices="tripinfo_124" vType="DEFAULT_VEHTYPE" speedFactor="0.90" vaporized=""/>
    <tripinfo id="245" depart="190.00" departLane="-781742860#2_0" departPos="5.10" departSpeed="0.00" departDelay="2.60" arrival="267.00" arrivalLane="-7682866#3_0" arrivalPos="24.10" arrivalSpeed="7.74" duration="77.00" routeLength="538.94" waitingTime="1.00" waitingCount="1" stopTime="0.00" timeLoss="13.78" rerouteNo="0" devices="tripinfo_245" vType="DEFAULT_VEHTYPE" speedFactor="1.06" vaporized=""/>
    <tripinfo id="8" depart="18.00" departLane="-781742860#2_0" departPos="5.10" departSpeed="0.00" departDelay="0.24" arrival="268.00" arrivalLane="31512978#0_0" arrivalPos="13.62" arrivalSpeed="7.04" duration="250.00" routeLength="1670.28" waitingTime="2.00" waitingCount="1" stopTime="0.00" timeLoss="30.59" rerouteNo="0" devices="tripinfo_8" vType="DEFAULT_VEHTYPE" speedFactor="0.86" vaporized=""/>
    <tripinfo id="198" depart="147.00" departLane="150276013#0_0" departPos="5.10" departSpeed="0.00" departDelay="0.44" arrival="272.00" arrivalLane="31445160#1_0" arrivalPos="115.52" arrivalSpeed="8.55" duration="125.00" routeLength="965.82" waitingTime="0.00" waitingCount="0" stopTime="0.00" timeLoss="15.71" rerouteNo="0" devices="tripinfo_198" vType="DEFAULT_VEHTYPE" speedFactor="1.07" vaporized=""/>
    <tripinfo id="5" depart="7.00" departLane="-781650841_0" departPos="5.10" departSpeed="0.00" departDelay="0.40" arrival="274.00" arrivalLane="231483312_0" arrivalPos="63.73" arrivalSpeed="8.57" duration="267.00" routeLength="1915.34" waitingTime="0.00" waitingCount="0" stopTime="0.00" timeLoss="43.63" rerouteNo="0" devices="tripinfo_5" vType="DEFAULT_VEHTYPE" speedFactor="1.11" vaporized=""/>
    <tripinfo id="179" depart="147.00" departLane="-30324793_0" departPos="5.10" departSpeed="0.00" departDelay="0.12" arrival="274.00" arrivalLane="150276015#0_0" arrivalPos="157.00" arrivalSpeed="6.60" duration="127.00" routeLength="844.45" waitingTime="4.00" waitingCount="1" stopTime="0.00" timeLoss="19.48" rerouteNo="0" devices="tripinfo_179" vType="DEFAULT_VEHTYPE" speedFactor="0.94" vaporized=""/>
    <tripinfo id="27" depart="21.00" departLane="40493418_0" departPos="5.10" departSpeed="0.00" departDelay="0.56" arrival="278.00" arrivalLane="36801004#0_0" arrivalPos="94.58" arrivalSpeed="12.34" duration="257.00" routeLength="1373.04" waitingTime="3.00" waitingCount="1" stopTime="0.00" timeLoss="33.63" rerouteNo="0" devices="tripinfo_27" vType="DEFAULT_VEHTYPE" speedFactor="0.92" vaporized=""/>