<?xml version="1.0" encoding="UTF-8"?>

<!-- generated on 2024-08-29 16:41:52 by Eclipse SUMO sumo Version 1.20.0
<configuration xmlns:xsi="http://www.w3.org/2001/XMLSchema-instance" xsi:noNamespaceSchemaLocation="http://sumo.dlr.de/xsd/sumoConfiguration.xsd">

    <input>
        <net-file value="/Users/dguastel/TULIPE_SCENARIO_OSM/tulipe_highways/tulipe_highways.rev.net.xml"/>
        <route-files value="output/39b1955c-4791-471e-a81c-eea8f0fa4ff9/routes.xml"/>
        <additional-files value="output/39b1955c-4791-471e-a81c-eea8f0fa4ff9/edgedata.add.xml,output/39b1955c-4791-471e-a81c-eea8f0fa4ff9/rerouter.add.xml"/>
    </input>

    <output>
        <tripinfo-output value="output/39b1955c-4791-471e-a81c-eea8f0fa4ff9/tripinfo.withRoadworks.out.xml"/>
        <tripinfo-output.write-unfinished value="true"/>
    </output>

    <time>
        <begin value="0"/>
        <end value="3600"/>
    </time>

    <processing>
        <ignore-route-errors value="true"/>
        <random-depart-offset value="20.0"/>
    </processing>

    <random_number>
        <random value="true"/>
    </random_number>

</configuration>
-->

<meandata xmlns:xsi="http://www.w3.org/2001/XMLSchema-instance" xsi:noNamespaceSchemaLocation="http://sumo.dlr.de/xsd/meandata_file.xsd">
    <interval begin="0.00" end="3600.00" id="0_to_3600">
        <edge id="-1000933268" sampledSeconds="0.00" departed="0" arrived="0" entered="0" left="0" laneChangedFrom="0" laneChangedTo="0"/>
        <edge id="-1006106056#0" sampledSeconds="0.00" departed="0" arrived="0" entered="0" left="0" laneChangedFrom="0" laneChangedTo="0"/>
        <edge id="-1006106056#1" sampledSeconds="0.00" departed="0" arrived="0" entered="0" left="0" laneChangedFrom="0" laneChangedTo="0"/>
        <edge id="-1024105863" sampledSeconds="481.45" traveltime="8.84" overlapTraveltime="9.72" density="5.12" laneDensity="5.12" occupancy="2.37" waitingTime="252.00" timeLoss="287.36" speed="3.20" speedRelative="0.38" departed="6" arrived="5" entered="45" left="45" laneChangedFrom="0" laneChangedTo="0"/>
        <edge id="-1037986847" sampledSeconds="77.42" traveltime="1.81" overlapTraveltime="3.03" density="107.53" laneDensity="53.76" occupancy="1.05" waitingTime="40.00" timeLoss="60.92" speed="1.71" speedRelative="0.21" departed="4" arrived="4" entered="23" left="23" laneChangedFrom="2" laneChangedTo="2"/>
        <edge id="-1056901981#1" sampledSeconds="0.00" departed="0" arrived="0" entered="0" left="0" laneChangedFrom="0" laneChangedTo="0"/>
        <edge id="-1058267556#0" sampledSeconds="0.00" departed="0" arrived="0" entered="0" left="0" laneChangedFrom="0" laneChangedTo="0"/>
        <edge id="-1058267556#1" sampledSeconds="0.00" departed="0" arrived="0" entered="0" left="0" laneChangedFrom="0" laneChangedTo="0"/>
        <edge id="-1059828488" sampledSeconds="0.00" departed="0" arrived="0" entered="0" left="0" laneChangedFrom="0" laneChangedTo="0"/>
        <edge id="-1059828490" sampledSeconds="0.00" departed="0" arrived="0" entered="0" left="0" laneChangedFrom="0" laneChangedTo="0"/>
        <edge id="-1066438511#1" sampledSeconds="535.17" traveltime="8.35" overlapTraveltime="9.11" density="2.38" laneDensity="2.38" occupancy="1.10" waitingTime="2.00" timeLoss="63.35" speed="7.40" speedRelative="0.89" departed="3" arrived="1" entered="56" left="58" laneChangedFrom="0" laneChangedTo="0"/>
        <edge id="-1066478854#1" sampledSeconds="840.31" traveltime="9.62" overlapTraveltime="10.28" density="3.30" laneDensity="3.30" occupancy="1.53" waitingTime="0.00" timeLoss="97.03" speed="7.37" speedRelative="0.88" departed="4" arrived="0" entered="78" left="82" laneChangedFrom="0" laneChangedTo="0"/>
        <edge id="-1080960154#1" sampledSeconds="436.76" traveltime="39.00" overlapTraveltime="40.10" density="0.69" laneDensity="0.69" occupancy="0.34" waitingTime="0.00" timeLoss="60.39" speed="4.51" speedRelative="0.81" departed="3" arrived="2" entered="8" left="9" laneChangedFrom="0" laneChangedTo="0"/>
        <edge id="-1083809476#2" sampledSeconds="111.88" traveltime="13.94" overlapTraveltime="14.97" density="0.43" laneDensity="0.43" occupancy="0.21" waitingTime="8.00" timeLoss="36.80" speed="5.20" speedRelative="0.62" departed="8" arrived="0" entered="0" left="8" laneChangedFrom="0" laneChangedTo="0"/>
        <edge id="-1089556862" sampledSeconds="0.00" departed="0" arrived="0" entered="0" left="0" laneChangedFrom="0" laneChangedTo="0"/>
        <edge id="-1092037414" sampledSeconds="0.00" departed="0" arrived="0" entered="0" left="0" laneChangedFrom="0" laneChangedTo="0"/>
        <edge id="-1092277111#0" sampledSeconds="0.00" departed="0" arrived="0" entered="0" left="0" laneChangedFrom="0" laneChangedTo="0"/>
        <edge id="-1092277112" sampledSeconds="0.00" departed="0" arrived="0" entered="0" left="0" laneChangedFrom="0" laneChangedTo="0"/>
        <edge id="-1092277114#0" sampledSeconds="0.00" departed="0" arrived="0" entered="0" left="0" laneChangedFrom="0" laneChangedTo="0"/>
        <edge id="-1092277114#1" sampledSeconds="0.00" departed="0" arrived="0" entered="0" left="0" laneChangedFrom="0" laneChangedTo="0"/>
        <edge id="-1099375861" sampledSeconds="0.00" departed="0" arrived="0" entered="0" left="0" laneChangedFrom="0" laneChangedTo="0"/>
        <edge id="-1104041094" sampledSeconds="0.00" departed="0" arrived="0" entered="0" left="0" laneChangedFrom="0" laneChangedTo="0"/>
        <edge id="-1104477172" sampledSeconds="0.00" departed="0" arrived="0" entered="0" left="0" laneChangedFrom="0" laneChangedTo="0"/>
        <edge id="-1106583870" sampledSeconds="223.76" traveltime="12.34" overlapTraveltime="13.38" density="0.69" laneDensity="0.69" occupancy="0.33" waitingTime="0.00" timeLoss="27.13" speed="7.08" speedRelative="0.85" departed="4" arrived="4" entered="13" left="13" laneChangedFrom="0" laneChangedTo="0"/>
        <edge id="-1109746214" sampledSeconds="0.00" departed="0" arrived="0" entered="0" left="0" laneChangedFrom="0" laneChangedTo="0"/>
        <edge id="-1109746215" sampledSeconds="0.00" departed="0" arrived="0" entered="0" left="0" laneChangedFrom="0" laneChangedTo="0"/>
        <edge id="-1112471208" sampledSeconds="0.00" departed="0" arrived="0" entered="0" left="0" laneChangedFrom="0" laneChangedTo="0"/>
        <edge id="-1127569560" sampledSeconds="0.00" departed="0" arrived="0" entered="0" left="0" laneChangedFrom="0" laneChangedTo="0"/>
        <edge id="-1143919181" sampledSeconds="0.00" departed="0" arrived="0" entered="0" left="0" laneChangedFrom="0" laneChangedTo="0"/>
        <edge id="-1156329250" sampledSeconds="22.61" traveltime="0.17" overlapTraveltime="0.98" density="4.98" laneDensity="4.98" occupancy="0.52" waitingTime="0.00" timeLoss="5.15" speed="6.39" speedRelative="0.77" departed="3" arrived="7" entered="24" left="20" laneChangedFrom="0" laneChangedTo="0"/>
        <edge id="-1156337048" sampledSeconds="0.00" departed="0" arrived="0" entered="0" left="0" laneChangedFrom="0" laneChangedTo="0"/>
        <edge id="-1167764376" sampledSeconds="2753.89" traveltime="90.76" overlapTraveltime="92.83" density="11.52" laneDensity="11.52" occupancy="5.72" waitingTime="2379.00" timeLoss="2501.59" speed="0.77" speedRelative="0.09" departed="8" arrived="3" entered="23" left="25" laneChangedFrom="0" laneChangedTo="0" teleported="2"/>
        <edge id="-1174838574" sampledSeconds="0.00" departed="0" arrived="0" entered="0" left="0" laneChangedFrom="0" laneChangedTo="0"/>
        <edge id="-1189500284" sampledSeconds="0.00" departed="0" arrived="0" entered="0" left="0" laneChangedFrom="0" laneChangedTo="0"/>
        <edge id="-119180342#1" sampledSeconds="119.83" traveltime="0.89" overlapTraveltime="1.37" density="3.33" laneDensity="1.66" occupancy="0.57" waitingTime="0.00" timeLoss="20.22" speed="10.97" speedRelative="0.79" departed="4" arrived="3" entered="85" left="86" laneChangedFrom="4" laneChangedTo="4"/>
        <edge id="-121794822#1" sampledSeconds="2569.44" traveltime="30.41" overlapTraveltime="32.93" density="11.37" laneDensity="11.37" occupancy="5.29" waitingTime="0.00" timeLoss="631.00" speed="2.06" speedRelative="0.74" departed="5" arrived="10" entered="74" left="69" laneChangedFrom="0" laneChangedTo="0"/>
        <edge id="-121794822#3" sampledSeconds="504.42" traveltime="5.40" overlapTraveltime="7.79" density="12.44" laneDensity="12.44" occupancy="4.33" waitingTime="0.00" timeLoss="118.87" speed="2.09" speedRelative="0.75" departed="4" arrived="4" entered="63" left="63" laneChangedFrom="0" laneChangedTo="0"/>
        <edge id="-121794822#5" sampledSeconds="419.92" traveltime="9.46" overlapTraveltime="11.85" density="5.84" laneDensity="5.84" occupancy="2.34" waitingTime="3.00" timeLoss="92.57" speed="2.11" speedRelative="0.76" departed="2" arrived="1" entered="34" left="35" laneChangedFrom="0" laneChangedTo="0"/>
        <edge id="-121794822#7" sampledSeconds="187.12" traveltime="5.43" overlapTraveltime="7.85" density="4.80" laneDensity="4.80" occupancy="1.68" waitingTime="0.00" timeLoss="48.05" speed="2.02" speedRelative="0.73" departed="6" arrived="1" entered="20" left="25" laneChangedFrom="0" laneChangedTo="0"/>
        <edge id="-121794822#9" sampledSeconds="101.72" traveltime="3.86" overlapTraveltime="6.26" density="3.28" laneDensity="3.28" occupancy="1.05" waitingTime="0.00" timeLoss="19.08" speed="2.17" speedRelative="0.78" departed="3" arrived="2" entered="15" left="16" laneChangedFrom="0" laneChangedTo="0"/>
        <edge id="-121794824" sampledSeconds="486.72" traveltime="37.41" overlapTraveltime="39.96" density="1.78" laneDensity="1.78" occupancy="0.86" waitingTime="20.00" timeLoss="134.22" speed="2.03" speedRelative="0.73" departed="13" arrived="0" entered="0" left="13" laneChangedFrom="0" laneChangedTo="0"/>
        <edge id="-121794825#0" sampledSeconds="269.62" traveltime="1.44" overlapTraveltime="4.20" density="133.33" laneDensity="133.33" occupancy="6.10" waitingTime="80.18" timeLoss="150.33" speed="1.24" speedRelative="0.44" departed="5" arrived="3" entered="62" left="64" laneChangedFrom="0" laneChangedTo="0"/>
        <edge id="-121794825#2" sampledSeconds="858.08" traveltime="21.98" overlapTraveltime="24.31" density="5.46" laneDensity="5.46" occupancy="2.49" waitingTime="42.00" timeLoss="230.55" speed="2.00" speedRelative="0.72" departed="6" arrived="1" entered="30" left="35" laneChangedFrom="0" laneChangedTo="0"/>
        <edge id="-121794825#3" sampledSeconds="30.72" overlapTraveltime="4.95" density="1.83" laneDensity="1.83" occupancy="0.48" waitingTime="0.00" timeLoss="8.64" speed="1.95" speedRelative="0.70" departed="12" arrived="0" entered="0" left="12" laneChangedFrom="0" laneChangedTo="0"/>
        <edge id="-121794827" sampledSeconds="427.04" traveltime="31.31" overlapTraveltime="33.63" density="1.84" laneDensity="1.84" occupancy="0.86" waitingTime="0.00" timeLoss="101.32" speed="2.07" speedRelative="0.74" departed="2" arrived="3" entered="11" left="10" laneChangedFrom="0" laneChangedTo="0"/>
        <edge id="-1230294701" sampledSeconds="839.29" traveltime="24.49" overlapTraveltime="25.87" density="4.61" laneDensity="4.61" occupancy="2.21" waitingTime="427.00" timeLoss="515.93" speed="2.15" speedRelative="0.39" departed="5" arrived="1" entered="28" left="31" laneChangedFrom="0" laneChangedTo="0"/>
        <edge id="-1236138839" sampledSeconds="0.00" departed="0" arrived="0" entered="0" left="0" laneChangedFrom="0" laneChangedTo="0"/>
        <edge id="-1236138842" sampledSeconds="0.00" departed="0" arrived="0" entered="0" left="0" laneChangedFrom="0" laneChangedTo="0"/>
        <edge id="-1236456856" sampledSeconds="0.00" departed="0" arrived="0" entered="0" left="0" laneChangedFrom="0" laneChangedTo="0"/>
        <edge id="-1238081828#1" sampledSeconds="0.00" departed="0" arrived="0" entered="0" left="0" laneChangedFrom="0" laneChangedTo="0"/>
        <edge id="-1239207127#1" sampledSeconds="0.00" departed="0" arrived="0" entered="0" left="0" laneChangedFrom="0" laneChangedTo="0"/>
        <edge id="-1239219872#1" sampledSeconds="0.00" departed="0" arrived="0" entered="0" left="0" laneChangedFrom="0" laneChangedTo="0"/>
        <edge id="-1245256709" sampledSeconds="0.00" departed="0" arrived="0" entered="0" left="0" laneChangedFrom="0" laneChangedTo="0"/>
        <edge id="-1245258622" sampledSeconds="0.00" departed="0" arrived="0" entered="0" left="0" laneChangedFrom="0" laneChangedTo="0"/>
        <edge id="-1263793722#2" sampledSeconds="106.30" traveltime="20.83" overlapTraveltime="21.54" density="0.19" laneDensity="0.19" occupancy="0.09" waitingTime="0.00" timeLoss="9.15" speed="7.33" speedRelative="0.88" departed="0" arrived="5" entered="5" left="0" laneChangedFrom="0" laneChangedTo="0"/>
        <edge id="-1263793723" sampledSeconds="66.52" traveltime="4.78" overlapTraveltime="5.87" density="0.60" laneDensity="0.60" occupancy="0.26" waitingTime="0.00" timeLoss="13.85" speed="6.12" speedRelative="0.73" departed="3" arrived="2" entered="9" left="10" laneChangedFrom="0" laneChangedTo="0"/>
        <edge id="-1267194155#2" sampledSeconds="310.86" traveltime="5.51" overlapTraveltime="6.35" density="2.23" laneDensity="2.23" occupancy="0.99" waitingTime="0.00" timeLoss="40.34" speed="6.88" speedRelative="0.83" departed="6" arrived="1" entered="44" left="49" laneChangedFrom="0" laneChangedTo="0"/>
        <edge id="-1305384085" sampledSeconds="0.00" departed="0" arrived="0" entered="0" left="0" laneChangedFrom="0" laneChangedTo="0"/>
        <edge id="-1305393686" sampledSeconds="0.00" departed="0" arrived="0" entered="0" left="0" laneChangedFrom="0" laneChangedTo="0"/>
        <edge id="-1307684786#1" sampledSeconds="431.81" traveltime="7.69" overlapTraveltime="8.70" density="2.39" laneDensity="2.39" occupancy="1.09" waitingTime="16.00" timeLoss="91.96" speed="6.33" speedRelative="0.76" departed="3" arrived="3" entered="47" left="47" laneChangedFrom="0" laneChangedTo="0"/>
        <edge id="-131916344" sampledSeconds="0.00" departed="0" arrived="0" entered="0" left="0" laneChangedFrom="0" laneChangedTo="0"/>
        <edge id="-131916348#3" sampledSeconds="0.00" departed="0" arrived="0" entered="0" left="0" laneChangedFrom="0" laneChangedTo="0"/>
        <edge id="-131954303" sampledSeconds="0.00" departed="0" arrived="0" entered="0" left="0" laneChangedFrom="0" laneChangedTo="0"/>
        <edge id="-132043932" sampledSeconds="0.00" departed="0" arrived="0" entered="0" left="0" laneChangedFrom="0" laneChangedTo="0"/>
        <edge id="-132043933" sampledSeconds="0.00" departed="0" arrived="0" entered="0" left="0" laneChangedFrom="0" laneChangedTo="0"/>
        <edge id="-132043934#0" sampledSeconds="0.00" departed="0" arrived="0" entered="0" left="0" laneChangedFrom="0" laneChangedTo="0"/>
        <edge id="-132043934#1" sampledSeconds="0.00" departed="0" arrived="0" entered="0" left="0" laneChangedFrom="0" laneChangedTo="0"/>
        <edge id="-132148870#1" sampledSeconds="3237.18" traveltime="14.87" overlapTraveltime="15.73" density="8.86" laneDensity="8.86" occupancy="4.22" waitingTime="28.00" timeLoss="542.08" speed="6.77" speedRelative="0.81" departed="3" arrived="3" entered="203" left="203" laneChangedFrom="0" laneChangedTo="0"/>
        <edge id="-132148870#2" sampledSeconds="829.97" traveltime="2.35" overlapTraveltime="3.10" density="14.10" laneDensity="14.10" occupancy="5.42" waitingTime="0.00" timeLoss="113.77" speed="6.89" speedRelative="0.83" departed="4" arrived="3" entered="265" left="266" laneChangedFrom="0" laneChangedTo="0"/>
        <edge id="-132376877" sampledSeconds="0.00" departed="0" arrived="0" entered="0" left="0" laneChangedFrom="0" laneChangedTo="0"/>
        <edge id="-132453746" sampledSeconds="0.00" departed="0" arrived="0" entered="0" left="0" laneChangedFrom="0" laneChangedTo="0"/>
        <edge id="-132453750#1" sampledSeconds="0.00" departed="0" arrived="0" entered="0" left="0" laneChangedFrom="0" laneChangedTo="0"/>
        <edge id="-132453751" sampledSeconds="0.00" departed="0" arrived="0" entered="0" left="0" laneChangedFrom="0" laneChangedTo="0"/>
        <edge id="-132453755" sampledSeconds="0.00" departed="0" arrived="0" entered="0" left="0" laneChangedFrom="0" laneChangedTo="0"/>
        <edge id="-132453762" sampledSeconds="0.00" departed="0" arrived="0" entered="0" left="0" laneChangedFrom="0" laneChangedTo="0"/>
        <edge id="-132928975" sampledSeconds="0.00" departed="0" arrived="0" entered="0" left="0" laneChangedFrom="0" laneChangedTo="0"/>
        <edge id="-13548482#0" sampledSeconds="0.00" departed="0" arrived="0" entered="0" left="0" laneChangedFrom="0" laneChangedTo="0"/>
        <edge id="-13548482#1" sampledSeconds="0.00" departed="0" arrived="0" entered="0" left="0" laneChangedFrom="0" laneChangedTo="0"/>
        <edge id="-137118865" sampledSeconds="0.00" departed="0" arrived="0" entered="0" left="0" laneChangedFrom="0" laneChangedTo="0"/>
        <edge id="-137419461#0" sampledSeconds="0.00" departed="0" arrived="0" entered="0" left="0" laneChangedFrom="0" laneChangedTo="0"/>
        <edge id="-137419461#1" sampledSeconds="0.00" departed="0" arrived="0" entered="0" left="0" laneChangedFrom="0" laneChangedTo="0"/>
        <edge id="-137419461#2" sampledSeconds="0.00" departed="0" arrived="0" entered="0" left="0" laneChangedFrom="0" laneChangedTo="0"/>
        <edge id="-137634033" sampledSeconds="0.00" departed="0" arrived="0" entered="0" left="0" laneChangedFrom="0" laneChangedTo="0"/>
        <edge id="-13764245#1" sampledSeconds="177.94" traveltime="29.20" overlapTraveltime="29.87" density="0.23" laneDensity="0.23" occupancy="0.11" waitingTime="0.00" timeLoss="18.37" speed="7.47" speedRelative="0.90" departed="0" arrived="6" entered="6" left="0" laneChangedFrom="0" laneChangedTo="0"/>
        <edge id="-13764247#1" sampledSeconds="3834.01" traveltime="344.99" overlapTraveltime="353.54" density="6.98" laneDensity="6.98" occupancy="3.49" waitingTime="3523.00" timeLoss="3629.19" speed="0.45" speedRelative="0.05" departed="12" arrived="0" entered="0" left="7" laneChangedFrom="0" laneChangedTo="0" teleported="4"/>
        <edge id="-13764389" sampledSeconds="51.79" traveltime="0.21" overlapTraveltime="1.08" density="19.98" laneDensity="19.98" occupancy="1.29" waitingTime="4.00" timeLoss="24.58" speed="5.31" speedRelative="0.38" departed="3" arrived="2" entered="47" left="48" laneChangedFrom="0" laneChangedTo="0"/>
        <edge id="-13853658" sampledSeconds="2588.23" traveltime="9.14" overlapTraveltime="10.25" density="17.01" laneDensity="17.01" occupancy="7.61" waitingTime="42.00" timeLoss="491.87" speed="4.61" speedRelative="0.83" departed="3" arrived="4" entered="250" left="249" laneChangedFrom="0" laneChangedTo="0"/>
        <edge id="-13853659#0" sampledSeconds="891.15" traveltime="6.48" overlapTraveltime="7.52" density="8.02" laneDensity="8.02" occupancy="3.46" waitingTime="0.00" timeLoss="120.67" speed="4.77" speedRelative="0.86" departed="2" arrived="4" entered="117" left="115" laneChangedFrom="0" laneChangedTo="0"/>
        <edge id="-13853659#1" sampledSeconds="795.21" traveltime="5.57" overlapTraveltime="6.61" density="8.34" laneDensity="8.34" occupancy="3.52" waitingTime="0.00" timeLoss="107.92" speed="4.76" speedRelative="0.86" departed="2" arrived="4" entered="119" left="117" laneChangedFrom="0" laneChangedTo="0"/>
        <edge id="-13853663" sampledSeconds="101.83" traveltime="19.97" overlapTraveltime="20.68" density="0.20" laneDensity="0.20" occupancy="0.09" waitingTime="0.00" timeLoss="12.18" speed="7.21" speedRelative="0.87" departed="1" arrived="4" entered="4" left="1" laneChangedFrom="0" laneChangedTo="0"/>
        <edge id="-138717593#0" sampledSeconds="0.00" departed="0" arrived="0" entered="0" left="0" laneChangedFrom="0" laneChangedTo="0"/>
        <edge id="-138717593#1" sampledSeconds="0.00" departed="0" arrived="0" entered="0" left="0" laneChangedFrom="0" laneChangedTo="0"/>
        <edge id="-138748684" sampledSeconds="0.00" departed="0" arrived="0" entered="0" left="0" laneChangedFrom="0" laneChangedTo="0"/>
        <edge id="-138748689" sampledSeconds="0.00" departed="0" arrived="0" entered="0" left="0" laneChangedFrom="0" laneChangedTo="0"/>
        <edge id="-14118784#0" sampledSeconds="1240.45" traveltime="14.34" overlapTraveltime="15.19" density="3.30" laneDensity="3.30" occupancy="1.57" waitingTime="4.00" timeLoss="156.37" speed="7.20" speedRelative="0.86" departed="5" arrived="7" entered="77" left="75" laneChangedFrom="0" laneChangedTo="0"/>
        <edge id="-14118784#2" sampledSeconds="377.70" traveltime="4.43" overlapTraveltime="5.19" density="3.48" laneDensity="3.48" occupancy="1.49" waitingTime="0.00" timeLoss="67.45" speed="6.78" speedRelative="0.81" departed="1" arrived="3" entered="72" left="70" laneChangedFrom="0" laneChangedTo="0"/>
        <edge id="-14362916#1" sampledSeconds="609.19" traveltime="13.84" overlapTraveltime="27.55" density="2.25" laneDensity="2.25" occupancy="0.62" waitingTime="307.00" timeLoss="398.02" speed="2.91" speedRelative="0.35" departed="14" arrived="0" entered="9" left="23" laneChangedFrom="0" laneChangedTo="0"/>
        <edge id="-14475193#5" sampledSeconds="0.00" departed="0" arrived="0" entered="0" left="0" laneChangedFrom="0" laneChangedTo="0"/>
        <edge id="-145550725#1" sampledSeconds="732.70" traveltime="37.61" overlapTraveltime="40.06" density="2.71" laneDensity="2.71" occupancy="1.31" waitingTime="12.00" timeLoss="190.87" speed="2.00" speedRelative="0.72" departed="20" arrived="0" entered="0" left="19" laneChangedFrom="0" laneChangedTo="0"/>
        <edge id="-14858868" sampledSeconds="144.64" traveltime="9.88" overlapTraveltime="10.53" density="0.54" laneDensity="0.54" occupancy="0.25" waitingTime="0.00" timeLoss="12.45" speed="7.56" speedRelative="0.91" departed="0" arrived="14" entered="14" left="0" laneChangedFrom="0" laneChangedTo="0"/>
        <edge id="-150275972" sampledSeconds="159.31" traveltime="12.95" overlapTraveltime="13.58" density="0.44" laneDensity="0.44" occupancy="0.21" waitingTime="0.00" timeLoss="13.97" speed="7.81" speedRelative="0.94" departed="0" arrived="12" entered="12" left="0" laneChangedFrom="0" laneChangedTo="0"/>
        <edge id="-150275984#0" sampledSeconds="525.80" traveltime="9.00" overlapTraveltime="10.27" density="3.01" laneDensity="3.01" occupancy="1.38" waitingTime="70.00" timeLoss="188.45" speed="5.21" speedRelative="0.63" departed="8" arrived="1" entered="44" left="51" laneChangedFrom="0" laneChangedTo="0"/>
        <edge id="-150275984#1" sampledSeconds="208.73" traveltime="3.73" overlapTraveltime="4.40" density="2.07" laneDensity="2.07" occupancy="0.88" waitingTime="0.00" timeLoss="22.33" speed="7.50" speedRelative="0.90" departed="2" arrived="4" entered="46" left="44" laneChangedFrom="0" laneChangedTo="0"/>
        <edge id="-150275984#2" sampledSeconds="78.17" traveltime="1.01" overlapTraveltime="1.70" density="2.97" laneDensity="2.97" occupancy="0.91" waitingTime="0.00" timeLoss="10.72" speed="7.25" speedRelative="0.87" departed="4" arrived="2" entered="44" left="46" laneChangedFrom="0" laneChangedTo="0"/>
        <edge id="-150275984#3" sampledSeconds="172.21" traveltime="3.07" overlapTraveltime="3.73" density="2.10" laneDensity="2.10" occupancy="0.87" waitingTime="0.00" timeLoss="19.56" speed="7.45" speedRelative="0.89" departed="3" arrived="3" entered="44" left="44" laneChangedFrom="0" laneChangedTo="0"/>
        <edge id="-150275984#4" sampledSeconds="244.06" traveltime="4.40" overlapTraveltime="5.06" density="2.13" laneDensity="2.13" occupancy="0.92" waitingTime="0.00" timeLoss="31.34" speed="7.29" speedRelative="0.88" departed="3" arrived="5" entered="46" left="44" laneChangedFrom="0" laneChangedTo="0"/>
        <edge id="-150275984#6" sampledSeconds="539.90" traveltime="10.39" overlapTraveltime="11.29" density="2.04" laneDensity="2.04" occupancy="0.95" waitingTime="5.00" timeLoss="81.85" speed="6.95" speedRelative="0.83" departed="2" arrived="3" entered="46" left="45" laneChangedFrom="0" laneChangedTo="0"/>
        <edge id="-150275985#2" sampledSeconds="126.69" traveltime="7.49" overlapTraveltime="8.15" density="0.62" laneDensity="0.62" occupancy="0.29" waitingTime="0.00" timeLoss="9.87" speed="7.60" speedRelative="0.91" departed="0" arrived="16" entered="16" left="0" laneChangedFrom="0" laneChangedTo="0"/>
        <edge id="-150275986#1" sampledSeconds="2773.95" traveltime="13.90" overlapTraveltime="15.26" density="7.82" laneDensity="7.82" occupancy="3.63" waitingTime="69.00" timeLoss="475.24" speed="6.79" speedRelative="0.81" departed="2" arrived="2" entered="180" left="180" laneChangedFrom="0" laneChangedTo="0"/>
        <edge id="-150275986#2" sampledSeconds="1720.66" traveltime="6.03" overlapTraveltime="6.86" density="12.03" laneDensity="12.03" occupancy="5.36" waitingTime="70.00" timeLoss="324.86" speed="6.52" speedRelative="0.78" departed="1" arrived="3" entered="250" left="248" laneChangedFrom="0" laneChangedTo="0"/>
        <edge id="-150275986#3" sampledSeconds="577.91" traveltime="1.62" overlapTraveltime="2.30" density="13.82" laneDensity="13.82" occupancy="4.88" waitingTime="0.00" timeLoss="63.68" speed="7.24" speedRelative="0.87" departed="9" arrived="5" entered="246" left="250" laneChangedFrom="0" laneChangedTo="0"/>
        <edge id="-150275986#4" sampledSeconds="201.78" traveltime="0.03" overlapTraveltime="0.82" density="133.33" laneDensity="133.33" occupancy="5.40" waitingTime="0.00" timeLoss="44.35" speed="6.35" speedRelative="0.76" departed="7" arrived="1" entered="240" left="246" laneChangedFrom="0" laneChangedTo="0"/>
        <edge id="-150275988#2" sampledSeconds="546.53" traveltime="10.34" overlapTraveltime="10.99" density="1.95" laneDensity="1.95" occupancy="0.91" waitingTime="0.00" timeLoss="55.87" speed="7.56" speedRelative="0.91" departed="4" arrived="2" entered="46" left="48" laneChangedFrom="0" laneChangedTo="0"/>
        <edge id="-150275988#4" sampledSeconds="347.71" traveltime="6.18" overlapTraveltime="7.32" density="4.48" laneDensity="4.48" occupancy="1.99" waitingTime="81.00" timeLoss="197.44" speed="3.63" speedRelative="0.44" departed="2" arrived="2" entered="46" left="46" laneChangedFrom="0" laneChangedTo="0"/>
        <edge id="-150275988#5" sampledSeconds="506.54" traveltime="10.01" overlapTraveltime="10.67" density="1.88" laneDensity="1.88" occupancy="0.89" waitingTime="0.00" timeLoss="53.96" speed="7.47" speedRelative="0.90" departed="7" arrived="2" entered="41" left="46" laneChangedFrom="0" laneChangedTo="0"/>
        <edge id="-150275992#1" sampledSeconds="0.00" departed="0" arrived="0" entered="0" left="0" laneChangedFrom="0" laneChangedTo="0"/>
        <edge id="-150276003#1" sampledSeconds="768.55" traveltime="14.12" overlapTraveltime="14.85" density="2.47" laneDensity="2.47" occupancy="1.18" waitingTime="125.00" timeLoss="191.50" speed="6.15" speedRelative="0.74" departed="2" arrived="4" entered="50" left="48" laneChangedFrom="0" laneChangedTo="0"/>
        <edge id="-150276003#2" sampledSeconds="771.39" traveltime="28.09" overlapTraveltime="28.76" density="1.04" laneDensity="1.04" occupancy="0.51" waitingTime="0.00" timeLoss="76.06" speed="7.36" speedRelative="0.88" departed="7" arrived="2" entered="20" left="25" laneChangedFrom="0" laneChangedTo="0"/>
        <edge id="-15089551" sampledSeconds="136.78" traveltime="7.63" overlapTraveltime="8.66" density="0.85" laneDensity="0.85" occupancy="0.38" waitingTime="16.00" timeLoss="36.76" speed="5.74" speedRelative="0.69" departed="2" arrived="1" entered="14" left="15" laneChangedFrom="0" laneChangedTo="0"/>
        <edge id="-155472436#1" sampledSeconds="177.52" traveltime="16.12" overlapTraveltime="16.89" density="0.45" laneDensity="0.45" occupancy="0.22" waitingTime="0.00" timeLoss="32.25" speed="6.78" speedRelative="0.81" departed="11" arrived="0" entered="0" left="11" laneChangedFrom="0" laneChangedTo="0"/>
        <edge id="-159636087" sampledSeconds="0.00" departed="0" arrived="0" entered="0" left="0" laneChangedFrom="0" laneChangedTo="0"/>
        <edge id="-17073048#1" sampledSeconds="339.91" traveltime="2.46" overlapTraveltime="3.18" density="6.28" laneDensity="6.28" occupancy="2.44" waitingTime="28.00" timeLoss="75.87" speed="6.29" speedRelative="0.75" departed="5" arrived="1" entered="103" left="107" laneChangedFrom="0" laneChangedTo="0"/>
        <edge id="-175976586#3" sampledSeconds="0.00" departed="0" arrived="0" entered="0" left="0" laneChangedFrom="0" laneChangedTo="0"/>
        <edge id="-175976586#5" sampledSeconds="0.00" departed="0" arrived="0" entered="0" left="0" laneChangedFrom="0" laneChangedTo="0"/>
        <edge id="-175976586#7" sampledSeconds="0.00" departed="0" arrived="0" entered="0" left="0" laneChangedFrom="0" laneChangedTo="0"/>
        <edge id="-17670100#4" sampledSeconds="180.30" traveltime="12.66" overlapTraveltime="13.38" density="0.57" laneDensity="0.57" occupancy="0.27" waitingTime="0.00" timeLoss="27.92" speed="6.94" speedRelative="0.83" departed="8" arrived="2" entered="6" left="12" laneChangedFrom="0" laneChangedTo="0"/>
        <edge id="-17670100#6" sampledSeconds="0.00" departed="0" arrived="0" entered="0" left="0" laneChangedFrom="0" laneChangedTo="0"/>
        <edge id="-17671153" sampledSeconds="24.04" traveltime="0.92" overlapTraveltime="2.04" density="1.51" laneDensity="1.51" occupancy="0.39" waitingTime="1.00" timeLoss="10.45" speed="4.61" speedRelative="0.55" departed="2" arrived="2" entered="11" left="11" laneChangedFrom="0" laneChangedTo="0"/>
        <edge id="-220267104#1" sampledSeconds="413.87" traveltime="5.67" overlapTraveltime="6.35" density="2.80" laneDensity="2.80" occupancy="1.25" waitingTime="0.00" timeLoss="48.68" speed="7.25" speedRelative="0.87" departed="6" arrived="5" entered="60" left="61" laneChangedFrom="0" laneChangedTo="0"/>